
                                 *****************
                                 * O   R   C   A *
                                 *****************

           --- An Ab Initio, DFT and Semiempirical electronic structure package ---

                  #######################################################
                  #                        -***-                        #
                  #  Department of molecular theory and spectroscopy    #
                  #              Directorship: Frank Neese              #
                  # Max Planck Institute for Chemical Energy Conversion #
                  #                  D-45470 Muelheim/Ruhr              #
                  #                       Germany                       #
                  #                                                     #
                  #                  All rights reserved                #
                  #                        -***-                        #
                  #######################################################


                         Program Version 3.0.3 - RELEASE   -


 With contributions from (in alphabetic order):
   Ute Becker             : Parallelization
   Dmytro Bykov           : SCF Hessian
   Dmitry Ganyushin       : Spin-Orbit,Spin-Spin,Magnetic field MRCI
   Andreas Hansen         : Spin unrestricted coupled pair/coupled cluster methods
   Dimitrios Liakos       : Extrapolation schemes; parallel MDCI
   Robert Izsak           : Overlap fitted RIJCOSX, COSX-SCS-MP3
   Christian Kollmar      : KDIIS, OOCD, Brueckner-CCSD(T), CCSD density
   Simone Kossmann        : Meta GGA functionals, TD-DFT gradient, OOMP2, MP2 Hessian
   Taras Petrenko         : DFT Hessian,TD-DFT gradient, ASA and ECA modules, normal mode analysis, Resonance Raman, ABS, FL, XAS/XES, NRVS
   Christoph Reimann      : Effective Core Potentials
   Michael Roemelt        : Restricted open shell CIS
   Christoph Riplinger    : Improved optimizer, TS searches, QM/MM, DLPNO-CCSD
   Barbara Sandhoefer     : DKH picture change effects
   Igor Schapiro          : Molecular dynamics
   Kantharuban Sivalingam : CASSCF convergence, NEVPT2
   Boris Wezisla          : Elementary symmetry handling
   Frank Wennmohs         : Technical directorship


 We gratefully acknowledge several colleagues who have allowed us to
 interface, adapt or use parts of their codes:
   Stefan Grimme, W. Hujo, H. Kruse, T. Risthaus : VdW corrections, initial TS optimization,
                                                   DFT functionals, gCP
   Ed Valeev                                     : LibInt (2-el integral package), F12 methods
   Garnet Chan, S. Sharma, R. Olivares           : DMRG
   Ulf Ekstrom                                   : XCFun DFT Library
   Mihaly Kallay                                 : mrcc  (arbitrary order and MRCC methods)
   Andreas Klamt, Michael Diedenhofen            : otool_cosmo (COSMO solvation model)
   Frank Weinhold                                : gennbo (NPA and NBO analysis)
   Christopher J. Cramer and Donald G. Truhlar   : smd solvation model


 Your calculation uses the libint2 library for the computation of 2-el integrals
 For citations please refer to: http://libint.valeyev.net

 This ORCA versions uses:
   CBLAS   interface :  Fast vector & matrix operations
   LAPACKE interface :  Fast linear algebra routines
   SCALAPACK package :  Parallel linear algebra routines


WARNING: Replacing TZV by TZV-DKH
Your calculation utilizes the basis: TZV-DKH
Cite in your paper:
H - Ba, Hf - Hg: D. A. Pantazis, X. Y. Chen, C. R. Landis and F. Neese, J. Chem. Theory Comput. 4, 908 (2008)
La-Lu          : D. A. Pantazis and F. Neese, J. Chem. Theory Comput. 5, 2229 (2009)
Ac-Lr          : D. A. Pantazis and F. Neese, J. Chem. Theory Comput. 7, 677 (2011)
Tl-Rn          : D. A. Pantazis and F. Neese, Theor. Chem. Acc. 131, 1292 (2012)



*****************************************
The coordinations will be read from file: CuII_1aq_129.xyz
*****************************************


================================================================================
                                        WARNINGS
                       Please study these warnings very carefully!
================================================================================
Now building the actual basis set

WARNING: TCut can not be >=Thresh
  ===> : TCut is set to 0.01*Thresh

WARNING: CASSCF multiplicity blocks not in descending order!
       : This is important for any CASSCF property run ...
 ===>  : Re-ordering the multiplicity blocks, nroots, irreps and alike!

IMPORTANT NOTE: CASSCF must signal convergence a subsequent NEVPT2! 
                Set maxiter=1 to run NEVPT2 with arbitrary orbitals.

 WARNING: Turning off Frozencore approximation


INFO   : the flag for use of LIBINT has been found!

================================================================================
                                       INPUT FILE
================================================================================
NAME = CuII_1aq_141.txt
|  1> #
|  2> # Cu(II) ion with single ligated water molecule
|  3> #
|  4> # Pre-optimization run testing:
|  5> # Run a - Initial TPSS/[def2-TZVP/J] geometry opt of doublet system from
|  6> #           approximate start geometry
|  7> #           RESTARTED after SCF gradient crash using last opt geom; KDIIS
|  8> # Run b - TPSS/[def2-TZVP/J] opt of quartet system from Run a output
|  9> #           FAILS - complex dissociates!
| 10> #
| 11> # Run 01 - TPSS/[def2-SV(P)/J] doublet opt from Run a orbitals and start geometry
| 12> # Run 02 - Freq calc from Run 01
| 13> # Run 03 - TPSS/[def2-SVP/J] doublet opt from Run 01
| 14> # Run 04 - Freq calc from Run 03
| 15> # Run 05 - TPSS/[def2-TZVP/J] doublet opt from Run 03
| 16> # Run 06 - Freq calc from Run 05
| 17> # Run 07 - TPSS/[def2-TZVPP/J] doublet opt from run 05
| 18> # Run 08 - Freq calc from run 07
| 19> # Run 09 - TPSS/[def2-aug-TZVPP/J] doublet opt from run 07
| 20> # Run 10 - Freq calc from run 09
| 21> # Run 11 - TPSS/[def2-QZVP/J] doublet opt from run 09
| 22> # Run 12 - Freq calc from run 11
| 23> # Run 13 - TPSS/[def2-QZVPP/J] doublet opt from run 11
| 24> # Run 14 - Freq calc from run 13
| 25> #
| 26> # Run 15 - TPSS/def2-SV(P) doublet opt from run 01
| 27> # Run 16 - Freq calc from run 15
| 28> # Run 17 - TPSS/def2-SVP doublet opt from run 03
| 29> # Run 18 - Freq calc from run 17
| 30> # Run 19 - TPSS/def2-TZVP doublet opt from run 05
| 31> # Run 20 - Freq calc from run 19
| 32> # Run 21 - TPSS/def2-TZVPP doublet opt from run 07
| 33> # Run 22 - Freq calc from run 21
| 34> # Run 23 - TPSS/def2-aug-TZVPP doublet opt from run 09
| 35> # Run 24 - Freq calc from run 23
| 36> # Run 25 - TPSS/def2-QZVP doublet opt from run 11
| 37> # Run 26 - Freq calc from run 25
| 38> #
| 39> # -- BREAK SEQUENCE --
| 40> #
| 41> # Run 27 - TPSSh/[def2-TZVPP/JCOSX] doublet opt from run 09
| 42> # Run 28 - Freq calc from run 27
| 43> # Run 29 - TZVPP/JCOSX re-opt at compressed Cu-O distance (a),
| 44> #            followed by relaxed scan (b)
| 45> #          (c) Giving up extending bond length
| 46> # Run 30 - NUMFREQ from highest energy point of Run 29 (.012) to get Hessian
| 47> #           SCF convergence issues; also, two negative frequencies!
| 48> # Run 31 - NUMFREQ from earlier in PE curve (.008) to get new Hessian
| 49> # Run 32 - TS opt from run 31, using that Hessian
| 50> # Run 33 - Thermochem and freqs at opt'ed TS from run 32
| 51> # Run 34 - Re-run TS opt with fresh Hessian to confirm at TS
| 52> #
| 53> # -- CASSCF --
| 54> #
| 55> # Run 35 - UHF single-point at opt geom from run 27
| 56> # Run 36 - Project down to SVP; get MP2 natorbs
| 57> # Run 37 - CASSCF(7,6) attempt from run 36 MP2 natorbs, run 27 geom
| 58> #
| 59> # -- diversion to H abstraction --
| 60> #
| 61> # Run 38 - SP NUMFREQ at TPSSh/[def2-TZVPP/JCOSX] with one H-O bond
| 62> #           stretched to 1.5x equil length, geom from run 27
| 63> #          (a) same NUMFREQ but with TPSSh/[def2-SVP/JCOSX]
| 64> # Run 39 - TS opt from run 38a (def2-SVP/J), using that Hessian
| 65> # Run 40 - NUMFREQ to retrieve final Hessian from run 39
| 66> #            TWO NEGATIVE EIGENVALUES - not a true TS
| 67> # Run 41 - Just to see, normal mode trajectory run on the H departure,
| 68> #           TPSSh/[def2-TZVPP/JCOSX], starting from run 38
| 69> # Run 42 - UHF MP2 natural orbitals from run 38a
| 70> # Run 43 - CASSCF(5,4) def2-SVP from run 42
| 71> # Run 44 - CASSCF(5,4) def2-SVP repeat of normal-mode trajectory of run 41, using
| 72> #            MP2 NatOrbs and geometry from run 42 [same geom as 38(a)]
| 73> #
| 74> # -- Back to ground state CASSCF --
| 75> #
| 76> # Run 45 - CASSCF(9,10) def2-SVP from 36 natorbs, with O-heavy orbitals 14-17
| 77> #           rotated DOWN into inactive space, replaced by Cu-d orbs (10-13)
| 78> #           THIS DID NOT CONVERGE. Replacing with:
| 79> #          CASSCF(9,9) def2-SVP from 36 natorbs; NO ROTATION.
| 80> # Run 46 - NEVPT2 recalc of the CASSCF(9,9) of run 45
| 81> #           (a) RI-NEVPT2 re-run of 46
| 82> # Run 47 - Re-run of CASSCF(9,9) of run 45, with four quartet and four doublet roots
| 83> # Run 48 - Re-run of CASSCF(9,9) of run 47, same roots but weight all on ground state
| 84> # Run 49 - RI-NEVPT2 CASSCF(9,9) def2-SVP/C extended atop run 48 (no orb opt in CASSCF)
| 85> # Run 50 - CASSCF(9,9) atop run 45, full CASSCF, 50/50 weighting on ground
| 86> #                and first excited roots (going eventually for full weight
| 87> #                on the first excited root)
| 88> # Run 51 - RI-NEVPT2 CASSCF(9,9;4[2],2[4]) atop run 50, keeping
| 89> #              50/50 weighting on 0th and 1st doublet roots
| 90> # Run 52 - CASSCF(9,9;4[2],2[4]) def2-SVP atop run 50, attempting full weight
| 91> #            on first doublet excited root
| 92> # Run 53 - RI-NEVPT2 CASSCF(9,9;4[2],2[4]) atop run 52, trying to maintain
| 93> #            the excited state as the focus state. Given ordering of states
| 94> #            in the run 52 output, this possibly means the 0th root.
| 95> # Run 54 - CASSCF(9,9;4[1],2[4]) def2-SVP OPT, all weight on 0th doublet,
| 96> #            started from run 45 orbitals and geom
| 97> # Run 55 - RI-NEVPT2 CASSCF(9,9;4[1],2[4]) def2-SVP SP from run 54,
| 98> #            all weight on 0th doublet
| 99> # Run 56 - CASSCF(9,9;2[2]) def2-SVP SP, 50/50 weight split on
|100> #            the two states; prep for RI-NEVPT2 OPT attempt.
|101> #            Starting from run 45 orbitals and geom on the hunch that
|102> #            optized structure will look more like the TPSSh one.
|103> # Run 57 - Same as run 56, but with full weight on 0th doublet root
|104> #            Run 56 unexpectedly introduced a second 3d orbital to the
|105> #            active space -- perhaps the lowest "split-state," if that's
|106> #            got any meaning to it?  Need to check to be sure that the 
|107> #            extra Cu 3d orbital didn't sneak into any of the other sims,
|108> #            to be sure that they're all ~apples to apples.
|109> # Run 58 - RI-NEVPT2(9,9;2[2]) def2-SVP SP of Run 56, to see where the 
|110> #            energetics sit -- to be compared to forthcoming Run 59,
|111> #            which will be a similar calculation, but from Run 57
|112> # Run 59 - RI-NEVPT2(9,9;2[2]) def2-SVP SP of Run 57
|113> # Run 60 - Attempting RI-NEVPT2(9,9;2[2]) def2-SVP opt from Run 59
|114> # Run 61 - UHF def2-TZVPP OPT to see whether H's go out of plane
|115> # Run 62 - RI-MP2 follow-on opt from run 61
|116> #
|117> #
|118> # Future things to do:
|119> #   1) Try to project up to def2-TZVPP
|120> #   2) Expand active space to Cu 3d,3d',4s?,4p?; O4sp w/DMRG
|121> #       --The unexpected retrieval of a Cu3d in Run 56 implies this
|122> #         ought to be interesting
|123> #   DONE 3) Try RI-NEVPT2(9,9;2[2]) def2-SVP OPT
|124> #       --May be VERY time consuming with numerical gradient...
|125> #   4) SOC? SSC? Spectrometric parameters?
|126> #   5) Repeat Runs 56 & 57, at geom(s) of 54 and/or of other OPTs?
|127> #       --What effect does the additional 3d participation have
|128> #         have on the geometry?
|129> #
|130> #
|131> # -- Some additional DFT opts, to explore where nonplanarity found --
|132> #
|133> # Run 63 - PBE/[def2-TZVPP/JCOSX] opt using same perturbed geom
|134> #            as in run 62
|135> # Run 64 - TPSS/[def2-TZVPP/JCOSX] opt, same perturbed start geom
|136> #            as run 63, to compare to run 09 results
|137> # Run 65 - PBE0/[def2-TZVPP/JCOSX] opt as with runs 63,64
|138> # Run 66 - BLYP/[def2-TZVPP/JCOSX] opt as with runs 63-65
|139> # Run 67 - B3LYP/[def2-TZVPP/JCOSX] opt as with runs 63-66
|140> # Run 68 - B2PLYP/[def2-TZVPP/JCOSX] opt as with runs 63-67
|141> #
|142> # --- Back to library for DFT ligand calcs ---
|143> #
|144> # Run 69 - TPSSh/[def2-aug-TZVPP/JCOSX] 2^ OPT,NFRQ from run 27
|145> # Run 70 - TPSSh/[def2-TZVP/JCOSX] 2^ OPT,NFRQ from run 27
|146> # Run 71 - TPSSh/[def2-aug-TZVPP/JCOSX] 4^ OPT,NFRQ attempt, 69xyz,orbs.
|147> #           Constraining %geom MaxIter to avoid it completely just
|148> #           exploding into space if it's unstable.
|149> #          Yep, 4^ opt exploded. Presuming 4^ complex just doesn't exist.
|150> #          CHANGE to:
|151> #           TPSSh/[def2-TZVPP/JCOSX] OPT,NFRQ w/D3, from 27xyz,orbs
|152> # Run 72 - TPSSh/[def2-TZVPP/JCOSX] 2^ OPT,NFRQ w/COSMO, from 27xyz,orbs
|153> # Run 73 - TPSSh/[def2-TZVPP/JCOSX] 2^ OPT.NFRQ w/DKH2, from 27xyz,orbs
|154> # Run 74 - TPSSh/[def2-TZVPP/JCOSX] 2^ OPT,NFRQ w/D3+COSMO, run *72*xyz,orbs
|155> # Run 75 - TPSSh/[def2-TZVPP/JCOSX] 2^ OPT,NFRQ w/D3+DKH2, run *73*xyz,orbs
|156> # Run 76 - TPSSh/[def2-TZVPP/JCOSX] 2^ OPT,NFRQ w/COSMO+DKH2, run *72*xyz,orbs
|157> # Run 77 - TPSSh/[def2-TZVPP/JCOSX] 2^ OPT,NFRQ w/D3+COSMO+DKH2, run
|158> #           76xyz,orbs
|159> #
|160> # Run 78 - TPSSh/[def2-TZVP/JCOSX] OPT,NFRQ w/D3, from *70*xyz,orbs
|161> # Run 79 - TPSSh/[def2-TZVP/JCOSX] OPT,NFRQ w/COSMO, from 70xyz,orbs
|162> # Run 80 - TPSSh/[def2-TZVP/JCOSX] OPT,NFRQ w/DKH2, from 70xyz,orbs
|163> # Run 81 - TPSSh/[def2-TZVP/JCOSX] OPT,NFRQ w/D3+COSMO, from 79xyz,orbs
|164> # Run 82 - TPSSh/[def2-TZVP/JCOSX] OPT,NFRQ w/D3+DKH2, from 80xyz,orbs
|165> # Run 83 - TPSSh/[def2-TZVP/JCOSX] OPT,NFRQ w/COSMO+DKH2, from 79xyz,orbs
|166> # Run 84 - TPSSh/[def2-TZVP/JCOSX] OPT,NFRQ w/D3+COSMO+DKH2, from 
|167> #           83xyz,orbs
|168> #
|169> # Run 85 - TPSSh/[def2-aug-TZVPP/JCOSX] OPT,NFRQ w/D3, from 69xyz,orbs
|170> # Run 86 - TPSSh/[def2-aug-TZVPP/JCOSX] OPT,NFRQ w/COSMO, from 69xyz,orbs
|171> # Run 87 - TPSSh/[def2-aug-TZVPP/JCOSX] OPT,NFRQ w/DKH2, from 69xyz,orbs
|172> # Run 88 - TPSSh/[def2-aug-TZVPP/JCOSX] OPT,NFRQ w/D3+COSMO,
|173> #           from 86xyz,orbs
|174> # Run 89 - TPSSh/[def2-aug-TZVPP/JCOSX] OPT,NFRQ w/D3+DKH2, from 87xyz,orbs
|175> # Run 90 - TPSSh/[def2-aug-TZVPP/JCOSX] OPT,NFRQ w/COSMO+DKH2, from
|176> #           run 86xyz,orbs
|177> # Run 91 - TPSSh/[def2-aug-TZVPP/JCOSX] OPT,NFRQ w/D3+COSMO+DKH2, from
|178> #           run 90xyz,orbs
|179> #
|180> # Run 92 - TPSSh/[def2-TZVP/JCOSX] OPT,NFRQ w/COSMO(ACETONE), fm91xyz
|181> #           PMODEL orbs, KDIIS
|182> # Run 93 - TPSSh/[def2-TZVP/JCOSX] OPT,NFRQ w/D3+COSMO(ACETONE), fm92xyz,orbs
|183> # Run 94 - TPSSh/[def2-TZVP/JCOSX] OPT,NFRQ w/COSMO(ACETONE)+DKH2, fm92xyz,orbs
|184> # Run 95 - TPSSh/[def2-TZVP/JCOSX] OPT,NFRQ w/D3+COSMO(ACETONE)+DKH2,
|185> #           fm 93xyz,orbs
|186> #
|187> # Run 96 - TPSSh/[def2-TZVPP/JCOSX] OPT,NFRQ w/COSMO(ACETONE), fm92xyz,orbs
|188> # Run 97 - TPSSh/[def2-TZVPP/JCOSX] OPT,NFRQ w/D3+COSMO(ACETONE), fm92xyz,orbs
|189> # Run 98 - TPSSh/[def2-TZVPP/JCOSX] OPT,NFRQ w/COSMO(ACETONE)+DKH2, fm96xyz,orbs
|190> # Run 99 - TPSSh/[def2-TZVPP/JCOSX] OPT,NFRQ w/D3+COSMO(ACETONE)+DKH2,
|191> #           fm 97xyz,orbs
|192> #
|193> # Run 100 - TPSSh/[def2-aug-TZVPP/JCOSX] OPT,NFRQ w/COSMO(ACETONE), fm96xyz,orbs
|194> # Run 101 - TPSSh/[def2-aug-TZVPP/JCOSX] OPT NFRQ w/D3+COSMO(ACETONE),
|195> #             fm 96xyz,orbs
|196> # Run 102 - TPSSh/[def2-aug-TZVPP/JCOSX] OPT,NFRQ w/COSMO(ACETONE)+DKH2,
|197> #             fm 100xyz,orbs
|198> # Run 103 - TPSSh/[def2-aug-TZVPP/JCOSX] OPT,NFRQ w/D3+COSMO(ACETONE)+DKH2,
|199> #             fm 101xyz,orbs
|200> # 
|201> # Run 104 - PBE/[def2-TZVP/J] OPT,AFQ from Run 103 geom
|202> # Run 105 - PBE/[def2-TZVP/J] OPT,AFQ+DKH2 from Run 103 geom
|203> # Run 106 - PBE/[def2-TZVP/J] OPT,AFQ+D3 from Run 103 geom
|204> # Run 107 - PBE/[def2-TZVP/J] OPT,AFQ+gCP from Run 103 geom
|205> # Run 108 - PBE/[def2-TZVP/J] OPT,AFQ+D3gCP from Run 103 geom
|206> # Run 109 - PBE/[def2-TZVP/J] OPT,AFQ+DKH2+D3gCP from Run 103 geom
|207> # Run 110 - PBE/[def2-TZVP/J] OPT,NFQ+COSMO(WATER) from Run 103 geom
|208> # Run 111 - PBE/[def2-TZVP/J] OPT,NFQ+DKH2+COSMO(WATER) from Run 103 geom
|209> # Run 112 - PBE/[def2-TZVP/J] OPT,NFQ+D3gCP+COSMO(WATER) from Run 103 geom
|210> # Run 113 - PBE/[def2-TZVP/J] OPT,NFQ+DKH2+D3gCP+COSMO(WATER) from Run 103 geom
|211> #
|212> # Run 114 - PBE0/[def2-TZVP/J] OPT,AFQ from Run 103 geom
|213> # Run 115 - PBE0/[def2-TZVP/J] OPT,AFQ+DKH2 from Run 103 geom
|214> # Run 116 - PBE0/[def2-TZVP/J] OPT,AFQ+D3 from Run 103 geom
|215> # Run 117 - PBE0/[def2-TZVP/J] OPT,AFQ+gCP from Run 103 geom
|216> # Run 118 - PBE0/[def2-TZVP/J] OPT,AFQ+D3gCP from Run 103 geom
|217> # Run 119 - PBE0/[def2-TZVP/J] OPT,AFQ+DKH2+D3gCP from Run 103 geom
|218> # Run 120 - PBE0/[def2-TZVP/J] OPT,NFQ+COSMO(WATER) from Run 103 geom
|219> # Run 121 - PBE0/[def2-TZVP/J] OPT,NFQ+DKH2+COSMO(WATER) from Run 103 geom
|220> # Run 122 - PBE0/[def2-TZVP/J] OPT,NFQ+D3gCP+COSMO(WATER) from Run 103 geom
|221> # Run 123 - PBE0/[def2-TZVP/J] OPT,NFQ+DKH2+D3gCP+COSMO(WATER) from Run 103 geom
|222> #
|223> # Run 124 - PBE10/[def2-TZVP/J] OPT,AFQ from Run 103 geom
|224> # Run 125 - PBE10/[def2-TZVP/J] OPT,AFQ+DKH2 from Run 103 geom
|225> # Run 126 - PBE10/[def2-TZVP/J] OPT,AFQ+D3 from Run 103 geom
|226> # Run 127 - PBE10/[def2-TZVP/J] OPT,AFQ+gCP from Run 103 geom
|227> # Run 128 - PBE10/[def2-TZVP/J] OPT,AFQ+D3gCP from Run 103 geom
|228> # Run 129 - PBE10/[def2-TZVP/J] OPT,AFQ+DKH2+D3gCP from Run 103 geom
|229> # Run 130 - PBE10/[def2-TZVP/J] OPT,NFQ+COSMO(WATER) from Run 103 geom
|230> # Run 131 - PBE10/[def2-TZVP/J] OPT,NFQ+DKH2+COSMO(WATER) from Run 103 geom
|231> # Run 132 - PBE10/[def2-TZVP/J] OPT,NFQ+D3gCP+COSMO(WATER) from Run 103 geom
|232> # Run 133 - PBE10/[def2-TZVP/J] OPT,NFQ+DKH2+D3gCP+COSMO(WATER) from Run 103 geom
|233> #
|234> # Run 134 - PBE10/[def2-TZVP/JCOSX] SCAN+DKH2+D3gCP, B Cu-O 1.5 to 4.5
|235> #                 Standard TIGHTOPT and TIGHTSCF -- GRID3, GRIDX7
|236> #                 Starting from 129xyz
|237> # Run 135 - PBE10/[def2-TZVP/JCOSX] SCAN+DKH2, B Cu-O 1.5 to 4.5 (25)
|238> #                 Standard TIGHTOPT and TIGHTSCF -- GRID3, GRIDX7
|239> #                 Starting from 125xyz
|240> # Run 136 - PBE10/[def2-TZVP/JCOSX] SCAN+DKH2, B Cu-O 2.0 to 17.0 (31)
|241> #                 Standard TIGHTOPT and TIGHTSCF -- GRID5, GRIDX9
|242> #                 Starting from 125xyz, MINIPRINT
|243> # Run 137 - PBE10/[def2-TZVP/JCOSX] SCAN+DKH2+D3gCP, B Cu-O 2.0 to 17.0 (31)
|244> #                 Standard TIGHTOPT and TIGHTSCF -- GRID5, GRIDX9
|245> #                 Starting from 129xyz, MINIPRINT
|246> #
|247> # Run 138 - UHF+MP2/[def2-TZVP/JCOSX] SP+DKH2, Cu-O @ 17.0
|248> #                 Natorbs for CAS
|249> # Run 139 - CAS(7,7)[6]/[def2-TZVP/JCOSX] SP+DKH2, from 138natorbs
|250> #            All weight on 2'[0]; plus NEVPT2
|251> #
|252> # Run 140 - UHF+MP2/[def2-TZVP/JCOSX] SP+DKH2, fm129xyz
|253> #                 Natorbs for CAS
|254> # Run 141 - CAS(7,7)[4,4,4]/[def2-TZVP/JCOSX] SP+DKH2, from 140natorbs
|255> #            All weight on 2'[0]; plus NEVPT2
|256> #
|257> 
|258> 
|259> #! UKS PBE0 def2-TZVP def2-TZVP/J RIJCOSX DKH2
|260> #! UHF RI-MP2 def2-TZVP def2-TZVP/J RIJCOSX DKH2
|261> ! UHF def2-TZVP def2-TZVP/J RIJCOSX DKH2
|262> #! TIGHTOPT GRID5 GRIDX9
|263> ! PAL8
|264> #! KDIIS MINIPRINT
|265> ! KEEPDENS
|266> %maxcore 1500
|267> 
|268> # DIIS Z_Solver for actually getting convergence?
|269> # Other stuff too?
|270> #%method  Z_Solver DIIS  end
|271> %scf  TCut 0  Thresh 0  end
|272> 
|273> 
|274> ### ANFREQ w/o COSMO
|275> #! ANFREQ
|276> 
|277> ### Have to use NUMFREQ w/COSMO
|278> #! NUMFREQ
|279> #%freq Increment 0.01 end
|280> 
|281> 
|282> ### Dispersion correction
|283> #! D3BJ
|284> 
|285> 
|286> ### Geometric Counterpoise
|287> #! GCP(DFT/TZ)
|288> 
|289> 
|290> ### Solvation
|291> #! COSMO(WATER)
|292> #! COSMO(ACETONE)
|293> ### Wikipedia for nitromethane
|294> #%cosmo epsilon 35.87 refrac 1.3935 end
|295> 
|296> 
|297> ### For new PBE10, when used, including D3BJ params
|298> ###  Setting D3BJ params appears not to automatically enable D3BJ -- GOOD.
|299> #%method ACM 0.1,0.9,1  D3a1 0.4485  D3s8 1.3681  D3a2 4.7711  end
|300> 
|301> 
|302> # ~Tightest possible gradient tolerances for ORCA in my hands
|303> #  Hopefully sufficient for quality anharmonic computations
|304> #%geom
|305> #   TolMaxG 1e-4 8e-6 5e-7
|306> #   TolRMSG 3e-5 1e-6 3e-7
|307> #   Scan  B 0 1 = 17.0, 2.0, 31  end
|308> #   OptGuess Hueckel
|309> #   MaxIter 450
|310> #   Trust -0.1
|311> #   end
|312> 
|313> # Extra iterations since dissociating system
|314> %scf
|315>    MaxIter 3000
|316>    end
|317> 
|318> # mp2 stuff
|319> #! NOAUTOSTART NOFROZENCORE
|320> #%mp2  DoNatOrbs True  Density Relaxed  end
|321> 
|322> 
|323> # CAS
|324> #%scf  MaxIter 0  Rotate { 26, 27, 90 } end  end
|325> %casscf
|326>    nel 7
|327>    norb 7
|328>    mult 2,4,6
|329>    nroots 4,4,4
|330>    bweight = 1,0,0
|331>    weights[0] = 1,0,0,0
|332>    weights[1] = 0,0,0,0
|333>    weights[2] = 0,0,0,0
|334>    nevpt2 true
|335>    end
|336> 
|337> 
|338> ! MOREAD
|339> %moinp "CuII_1aq_140.mp2nat"
|340> 
|341> 
|342> * xyzfile 2 2 CuII_1aq_129.xyz
|343> 
|344> 
|345> 
|346>                          ****END OF INPUT****
================================================================================

                       ****************************
                       * Single Point Calculation *
                       ****************************

---------------------------------
CARTESIAN COORDINATES (ANGSTROEM)
---------------------------------
  Cu    -0.799206   -0.253198   -0.253158
  O      0.979343    0.191932    0.191928
  H      1.409921    1.050404   -0.089167
  H      1.409941   -0.089138    1.050398

----------------------------
CARTESIAN COORDINATES (A.U.)
----------------------------
  NO LB      ZA    FRAG    MASS        X           Y           Z
   0 Cu   29.0000    0    63.550         -1.510280921797553         -0.478474784320185         -0.478399335475953
   1 O     8.0000    0    15.999          1.850690771751837          0.362698781561885          0.362690908804169
   2 H     1.0000    0     1.008          2.664364274119305          1.984976658322304         -0.168500882989559
   3 H     1.0000    0     1.008          2.664402387964013         -0.168447135034878          1.984964719916585

--------------------------------
INTERNAL COORDINATES (ANGSTROEM)
--------------------------------
 Cu     0   0   0   0.000000     0.000     0.000
 O      1   0   0   1.886659     0.000     0.000
 H      2   1   0   1.000693   122.804     0.000
 H      2   1   3   1.000693   122.803   146.669

---------------------------
INTERNAL COORDINATES (A.U.)
---------------------------
 Cu     0   0   0   0.000000     0.000     0.000
 O      1   0   0   3.565268     0.000     0.000
 H      2   1   0   1.891035   122.804     0.000
 H      2   1   3   1.891035   122.803   146.669

---------------------
BASIS SET INFORMATION
---------------------
There are 3 groups of distinct atoms

 Group   1 Type Cu  : 17s11p7d1f contracted to 10s6p4d1f pattern {8111111111/611111/4111/1}
 Group   2 Type O   : 11s6p2d1f contracted to 6s3p2d1f pattern {611111/411/11/1}
 Group   3 Type H   : 5s1p contracted to 3s1p pattern {311/1}

Atom   0Cu   basis set group =>   1
Atom   1O    basis set group =>   2
Atom   2H    basis set group =>   3
Atom   3H    basis set group =>   3
-------------------------------
AUXILIARY BASIS SET INFORMATION
-------------------------------
There are 3 groups of distinct atoms

 Group   1 Type Cu  : 19s5p5d3f3g contracted to 8s5p4d3f3g pattern {121111111/11111/2111/111/111}
 Group   2 Type O   : 12s5p4d2f1g contracted to 6s4p3d1f1g pattern {711111/2111/211/2/1}
 Group   3 Type H   : 5s2p1d contracted to 3s1p1d pattern {311/2/1}

Atom   0Cu   basis set group =>   1
Atom   1O    basis set group =>   2
Atom   2H    basis set group =>   3
Atom   3H    basis set group =>   3


           ************************************************************
           *        Program running with 8 parallel MPI-processes     *
           *              working on a common directory               *
           ************************************************************
------------------------------------------------------------------------------
                           ORCA GTO INTEGRAL CALCULATION
                           -- RI-GTO INTEGRALS CHOSEN --
------------------------------------------------------------------------------

                         BASIS SET STATISTICS AND STARTUP INFO

Gaussian basis set:
 # of primitive gaussian shells          ...   68
 # of primitive gaussian functions       ...  154
 # of contracted shells                  ...   41
 # of contracted basis functions         ...   99
 Highest angular momentum                ...    3
 Maximum contraction depth               ...    8
Auxiliary gaussian basis set:
 # of primitive gaussian shells          ...   75
 # of primitive gaussian functions       ...  209
 # of contracted shells                  ...   48
 # of contracted aux-basis functions     ...  162
 Highest angular momentum                ...    4
 Maximum contraction depth               ...   12
Ratio of auxiliary to basis functions    ...  1.64
Integral package used                  ... LIBINT
 One Electron integrals                  ... done
 Ordering auxiliary basis shells         ... done
 Integral threshhold             Thresh  ...  0.000e+00
 Primitive cut-off               TCut    ...  0.000e+00
 Pre-screening matrix                    ... done
 Shell pair data                         ... 
 Ordering of the shell pairs             ... done (   0.000 sec) 827 of 861 pairs
 Determination of significant pairs      ... done (   0.000 sec)
 Creation of shell pair data             ... done (   0.000 sec)
 Storage of shell pair data              ... done (   0.001 sec)
 Shell pair data done in (   0.002 sec)
 Computing two index integrals           ... done
 Cholesky decomposition of the V-matrix  ... done


Timings:
 Total evaluation time                   ...   0.406 sec (  0.007 min)
 One electron matrix time                ...   0.016 sec (  0.000 min) =  3.9%
 Schwartz matrix evaluation time         ...   0.341 sec (  0.006 min) = 84.2%
 Two index repulsion integral time       ...   0.011 sec (  0.000 min) =  2.7%
 Cholesky decomposition of V             ...   0.001 sec (  0.000 min) =  0.3%
 Three index repulsion integral time     ...   0.000 sec (  0.000 min) =  0.0%

           ************************************************************
           *              Shut down parallel processing               *
           ************************************************************
------------------------------------------------------------------------------
                          ORCA RELATIVISTIC HAMILTONIAN
------------------------------------------------------------------------------

Relativistic Method            ... DKH
Order of DKH treatment         ...   2
Treatment of potential         ... V(e,N)
Eps parameter for DKH          ...   0.00000000010000
Nucleus model                  ... Point Nucleus
Speed of light used            ... 137.03598950000000


            ************************************************
            *        DOUGLAS-KROLL-HESS HAMILTONIAN        *
            *   Programmed by FN according to literature   *
            *        procedures. Special thanks to         *
            *       B.A. Hess, M. Reiher and A. Wolf       *
            *     University Erlangen-Nuernberg/Bonn       *
            ************************************************

Uncontracting the basis (first version)        ... done
Number of contracted basis functions           ...   99
Number of uncontracted basis functions         ...  154
Initializing the DKH file                      ... done
Calculating the relativistic integrals         ... done
Storing DKH matrices                           ... done
Code used for DKH trafo                        ... ORCA
Computing the DKH transformation               ... done
Storing the transformation variables           ... done
Transforming V and pVp to p**2 space           ... done
First transformation of V and pVp              ... done
Second transformation of Veff                  ... done
Adding kinetic energy                          ... done
Back transformation of Veff to r-space         ... done
Recovering DKH matrices                        ... done
Recontracting the H-matrix (first version)     ... done
Computing the DKH correction to the H-matrix   ... done
Reading the original H-matrix                  ... done
Adding DKH correction to the H-matrix          ... done
Storing the new modified H-matrix              ... done


           ************************************************************
           *        Program running with 8 parallel MPI-processes     *
           *              working on a common directory               *
           ************************************************************
-------------------------------------------------------------------------------
                                 ORCA SCF
-------------------------------------------------------------------------------

------------
SCF SETTINGS
------------
Hamiltonian:
 Ab initio Hamiltonian  Method          .... Hartree-Fock(GTOs)
 RI-approximation to the Coulomb term is turned on
   Number of auxiliary basis functions  .... 162
   RIJ-COSX (HFX calculated with COS-X)).... on

Relativistic Settings:
 Scalar relativistic method             .... Douglas-Kroll-Hess
 Order of DKH procedure    Order        ....    2
 Mode of DKH-treatment                  .... V=V(e,N)
 Speed of light used       Velit        ....       137.035989
 Cutoff-constant           Eps          ....            1e-10 


General Settings:
 Integral files         IntName         .... CuII_1aq_141
 Hartree-Fock type      HFTyp           .... CASSCF
 Total Charge           Charge          ....    2
 Multiplicity           Mult            ....    2
 Number of Electrons    NEL             ....   37
 Basis Dimension        Dim             ....   99
 Nuclear Repulsion      ENuc            ....     85.8026448338 Eh


Diagonalization of the overlap matrix:
Smallest eigenvalue                        ... 6.287e-04
Time for diagonalization                   ...    0.004 sec
Threshold for overlap eigenvalues          ... 1.000e-08
Number of eigenvalues below threshold      ... 0
Time for construction of square roots      ...    0.002 sec
Total time needed                          ...    0.005 sec

---------------------
INITIAL GUESS: MOREAD
---------------------
Guess MOs are being read from file: CuII_1aq_140.mp2nat
Input Geometry matches current geometry (good)
Input basis set matches current basis set (good)
MOs were renormalized
MOs were reorthogonalized (Cholesky)
                      ------------------
                      INITIAL GUESS DONE (   0.0 sec)
                      ------------------
--------------------
COSX GRID GENERATION
--------------------

General Integration Accuracy     IntAcc      ...  3.340
Radial Grid Type                 RadialGrid  ... Gauss-Chebyshev
Angular Grid (max. acc.)         AngularGrid ... Lebedev-50
Angular grid pruning method      GridPruning ... 3 (G Style)
Weight generation scheme         WeightScheme... Becke
Basis function cutoff            BFCut       ...    1.0000e-10
Integration weight cutoff        WCut        ...    1.0000e-14
Grids for H and He will be reduced by one unit

# of grid points (after initial pruning)     ...   2286 (   0.0 sec)
# of grid points (after weights+screening)   ...   2263 (   0.0 sec)
nearest neighbour list constructed           ...    0.0 sec
Grid point re-assignment to atoms done       ...    0.0 sec
Grid point division into batches done        ...    0.0 sec
Reduced shell lists constructed in    0.0 sec

Total number of grid points                  ...     2263
Total number of batches                      ...       37
Average number of points per batch           ...       61
Average number of grid points per atom       ...      566
Average number of shells per batch           ...    18.67 (45.53%)
Average number of basis functions per batch  ...    50.67 (51.18%)
Average number of large shells per batch     ...    14.17 (75.89%)
Average number of large basis fcns per batch ...    38.17 (75.33%)
Maximum spatial batch extension              ...  16.81, 29.68, 29.68 au
Average spatial batch extension              ...   1.84,  2.39,  2.70 au

Overlap Fitting                  UseSFitting ... on
Constructing numerical overlap ... done (      0.0 sec)
Inverting numerical overlap    ... done (      0.0 sec)
Obtaining analytic overlap     ... done (      0.0 sec)
Final contraction and storage  ... done (      0.0 sec)


General Integration Accuracy     IntAcc      ...  3.670
Radial Grid Type                 RadialGrid  ... Gauss-Chebyshev
Angular Grid (max. acc.)         AngularGrid ... Lebedev-50
Angular grid pruning method      GridPruning ... 3 (G Style)
Weight generation scheme         WeightScheme... Becke
Basis function cutoff            BFCut       ...    1.0000e-10
Integration weight cutoff        WCut        ...    1.0000e-14
Grids for H and He will be reduced by one unit

# of grid points (after initial pruning)     ...   2856 (   0.0 sec)
# of grid points (after weights+screening)   ...   2824 (   0.0 sec)
nearest neighbour list constructed           ...    0.0 sec
Grid point re-assignment to atoms done       ...    0.0 sec
Grid point division into batches done        ...    0.0 sec
Reduced shell lists constructed in    0.0 sec

Total number of grid points                  ...     2824
Total number of batches                      ...       47
Average number of points per batch           ...       60
Average number of grid points per atom       ...      706
Average number of shells per batch           ...    17.00 (41.46%)
Average number of basis functions per batch  ...    45.29 (45.74%)
Average number of large shells per batch     ...    12.71 (74.79%)
Average number of large basis fcns per batch ...    33.00 (72.87%)
Maximum spatial batch extension              ...  17.47, 31.36, 31.36 au
Average spatial batch extension              ...   1.78,  2.32,  2.54 au

Overlap Fitting                  UseSFitting ... on
Constructing numerical overlap ... done (      0.0 sec)
Inverting numerical overlap    ... done (      0.0 sec)
Obtaining analytic overlap     ... done (      0.0 sec)
Final contraction and storage  ... done (      0.0 sec)


General Integration Accuracy     IntAcc      ...  4.010
Radial Grid Type                 RadialGrid  ... Gauss-Chebyshev
Angular Grid (max. acc.)         AngularGrid ... Lebedev-110
Angular grid pruning method      GridPruning ... 3 (G Style)
Weight generation scheme         WeightScheme... Becke
Basis function cutoff            BFCut       ...    1.0000e-10
Integration weight cutoff        WCut        ...    1.0000e-14
Grids for H and He will be reduced by one unit

# of grid points (after initial pruning)     ...   5362 (   0.0 sec)
# of grid points (after weights+screening)   ...   5296 (   0.0 sec)
nearest neighbour list constructed           ...    0.0 sec
Grid point re-assignment to atoms done       ...    0.0 sec
Grid point division into batches done        ...    0.0 sec
Reduced shell lists constructed in    0.0 sec

Total number of grid points                  ...     5296
Total number of batches                      ...       85
Average number of points per batch           ...       62
Average number of grid points per atom       ...     1324
Average number of shells per batch           ...    14.75 (35.98%)
Average number of basis functions per batch  ...    37.42 (37.79%)
Average number of large shells per batch     ...    11.08 (75.14%)
Average number of large basis fcns per batch ...    29.42 (78.62%)
Maximum spatial batch extension              ...  17.57, 26.79, 25.05 au
Average spatial batch extension              ...   1.66,  1.90,  1.69 au

Overlap Fitting                  UseSFitting ... on
Constructing numerical overlap ... done (      0.0 sec)
Inverting numerical overlap    ... done (      0.0 sec)
Obtaining analytic overlap     ... done (      0.0 sec)
Final contraction and storage  ... done (      0.0 sec)

Time for X-Grid setup             =    0.188 sec


 ... the calculation is a CASSCF calculation -I'm leaving here GOOD LUCK!!!

           ************************************************************
           *              Shut down parallel processing               *
           ************************************************************


           ************************************************************
           *        Program running with 8 parallel MPI-processes     *
           *              working on a common directory               *
           ************************************************************
-------------------------------------------------------------------------------
                              ORCA-CASSCF
-------------------------------------------------------------------------------


Setting up the integral package       ... done
Setting up the integral package (RI)  ... done
Building the CAS space              ... done (43 configurations for Mult=6)
Building the CAS space              ... done (253 configurations for Mult=4)
Building the CAS space              ... done (393 configurations for Mult=2)

 CASSCF (estimated) memory needed     ... 0.6 MB
 NEVPT2 (estimated) memory needed     ... 7.1 MB


SYSTEM-SPECIFIC SETTINGS:
Number of active electrons          ...    7
Number of active orbitals           ...    7
Total number of electrons           ...   37
Total number of orbitals            ...   99
Total number aux. functions         ...  162

Determined orbital ranges:
   Internal       0 -   14 (  15 orbitals)
   Active        15 -   21 (   7 orbitals)
   External      22 -   98 (  77 orbitals)
Number of rotation parameters      ...   1799

CI-STEP:
Number of multiplicity blocks       ...    3
BLOCK  1 WEIGHT=   0.0000
  Multiplicity                      ...    6
  #(Configurations)                 ...   43
  #(CSFs)                           ...   48
  #(Roots)                          ...    4
    ROOT=0 WEIGHT=    0.000000
    ROOT=1 WEIGHT=    0.000000
    ROOT=2 WEIGHT=    0.000000
    ROOT=3 WEIGHT=    0.000000

BLOCK  2 WEIGHT=   0.0000
  Multiplicity                      ...    4
  #(Configurations)                 ...  253
  #(CSFs)                           ...  392
  #(Roots)                          ...    4
    ROOT=0 WEIGHT=    0.000000
    ROOT=1 WEIGHT=    0.000000
    ROOT=2 WEIGHT=    0.000000
    ROOT=3 WEIGHT=    0.000000

BLOCK  3 WEIGHT=   1.0000
  Multiplicity                      ...    2
  #(Configurations)                 ...  393
  #(CSFs)                           ...  784
  #(Roots)                          ...    4
    ROOT=0 WEIGHT=    1.000000
    ROOT=1 WEIGHT=    0.000000
    ROOT=2 WEIGHT=    0.000000
    ROOT=3 WEIGHT=    0.000000

  PrintLevel                        ...    1
CI step strategy                    ... DIRECT (CSF)
  N(GuessMat)                       ...      2064
  Max(Iter-CI)                      ...        35
  MaxDim(CI)                        ...         3
  MaxIter(CI)                       ...        64
  Energy Tolerance CI               ...  1.00e-08
  Residual Tolerance CI             ...  1.00e-08
  Shift(CI)                         ...  1.00e-13

INTEGRAL-TRANSFORMATION-STEP:
  Algorithm                         ... RI-MO

ORBITAL-IMPROVEMENT-STEP:
  Algorithm                         ... SuperCI
  Default Parametrization           ... CAYLEY
  Options for diverging steps       ... let the program figure out whats best
  Act-Act rotations                 ... depends on algorithm used
  FreezeIE                          ... 95.00% of ||g||
  Until reaching FreezeIE rotations with active orbitals are damped. 

  MaxRot                            ... 2.00e-01 
  TolU                              ... 5.00e-01 
  MaxDampIter                       ... 3 
  Approx. Fock at                   ... 1.000000e-02 density convergence
  Level shift                       ... energy gap dependent
  Switch step at gradient           ...  3.00e-02 
  Switch step at iteration          ...        50   
  Switch step to                    ... DIIS    

SCF-SETTINGS:
  Incremental                       ... on
  RIJCOSX approximation             ... on
  UseFinalGrid                      ... on
  RI-JK approximation               ... off
  AO integral handling              ... DIRECT
  Integral Neglect Thresh           ...  0.00e+00
  Primitive cutoff TCut             ...  0.00e+00
  Energy convergence tolerance      ...  1.00e-07
  Orbital gradient convergence      ...  1.00e-03
  Max. number of iterations         ...        75  

NEVPT2-SETTINGS:
  A NEVPT2 calculation will be performed on top of the CASSCF wave function!
  D4C handling                      ... on the fly
  CI truncation for D4C at          ...  1.00e-10
  CI truncation for D3  at          ...  1.00e-14
  Orbitals                          ... canonical for each state 
  RI Step                           ... store IAV(disk), IJV(array) 

PROPERTIES-SETTINGS:
  QDPT diagonal energies            ... NEVPT2 energies 
FINAL ORBITALS:
  Active   Orbitals                 ... natural 
  Internal Orbitals                 ... canonical 
  External Orbitals                 ... canonical 

The smallest 3 eigenvalues: 1.664e-04 1.633e-03 4.617e-03

------------------
CAS-SCF ITERATIONS
------------------


MACRO-ITERATION   1: 
   --- Canonicalize Internal Space
   --- Canonicalize External Space
   --- Inactive Energy E0 = -1709.18771032 Eh
CI-ITERATION   0: 
 -1726.845135000   0.000000000000 (    0.00)
 -1726.830766578   0.000000000000
 -1726.709954493   0.000000000000
 -1726.513847638   0.000000000000
   CI-PROBLEM SOLVED
   DENSITIES MADE
CI-ITERATION   0: 
 -1727.734040551   0.000000000000 (    0.00)
 -1727.708455342   0.000000000000
 -1727.627029162   0.000000000000
 -1727.561897342   0.000000000000
   CI-PROBLEM SOLVED
   DENSITIES MADE
CI-ITERATION   0: 
 -1728.523420204   0.000000000000 (    0.00)
 -1728.195370088   0.000000000000
 -1728.100624009   0.000000000000
 -1727.976672319   0.000000000000
   CI-PROBLEM SOLVED
   DENSITIES MADE

                 <<<<<<<<<<<<<<<<<<INITIAL CI STATE CHECK>>>>>>>>>>>>>>>>>>

BLOCK  1 MULT= 6 NROOTS= 4 
ROOT   0:  E=   -1726.8451350005 Eh
      0.59287 [     0]: 2111110
      0.34005 [     6]: 1211110
      0.04693 [     2]: 2111011
      0.01145 [     8]: 1211011
      0.00396 [    15]: 1112110
ROOT   1:  E=   -1726.8307665780 Eh  0.391 eV   3153.5 cm**-1
      0.95603 [    11]: 1121110
      0.03885 [    13]: 1121011
ROOT   2:  E=   -1726.7099544927 Eh  3.678 eV  29668.7 cm**-1
      0.62007 [     6]: 1211110
      0.29679 [     0]: 2111110
      0.05427 [     2]: 2111011
      0.01385 [    12]: 1121101
      0.00807 [     8]: 1211011
ROOT   3:  E=   -1726.5138476376 Eh  9.015 eV  72709.2 cm**-1
      0.33049 [     2]: 2111011
      0.31487 [    12]: 1121101
      0.28176 [     8]: 1211011
      0.05817 [     0]: 2111110
      0.00471 [    17]: 1112011
      0.00275 [    30]: 1101121

BLOCK  2 MULT= 4 NROOTS= 4 
ROOT   0:  E=   -1727.7340405507 Eh
      0.63596 [    11]: 2121010
      0.34568 [    67]: 1221010
ROOT   1:  E=   -1727.7084553415 Eh  0.696 eV   5615.3 cm**-1
      0.55577 [    10]: 2121100
      0.37329 [    66]: 1221100
      0.03704 [    12]: 2121001
      0.00954 [    68]: 1221001
      0.00580 [   101]: 1122100
      0.00346 [     1]: 2211010
      0.00292 [    37]: 2101120
      0.00283 [   123]: 1111210
ROOT   2:  E=   -1727.6270291616 Eh  2.912 eV  23486.3 cm**-1
      0.68319 [     1]: 2211010
      0.20232 [    66]: 1221100
      0.06913 [    10]: 2121100
      0.02691 [    12]: 2121001
      0.00376 [   126]: 1111111
ROOT   3:  E=   -1727.5618973419 Eh  4.684 eV  37781.1 cm**-1
      0.46752 [    67]: 1221010
      0.26760 [     0]: 2211100
      0.22972 [    11]: 2121010
      0.01864 [     2]: 2211001

BLOCK  3 MULT= 2 NROOTS= 4 
ROOT   0:  E=   -1728.5234202036 Eh
      0.97068 [     0]: 2221000
      0.00439 [    20]: 2201020
      0.00397 [   126]: 1222000
      0.00351 [   140]: 1211110
      0.00349 [    47]: 2111011
      0.00295 [   176]: 1121101
ROOT   1:  E=   -1728.1953700885 Eh  8.927 eV  71998.7 cm**-1
      0.48911 [   126]: 1222000
      0.44990 [    30]: 2122000
      0.01774 [   171]: 1122100
      0.00785 [   267]: 0222100
      0.00513 [   173]: 1122001
      0.00471 [    77]: 2022001
      0.00328 [    41]: 2112010
      0.00321 [   137]: 1212010
ROOT   2:  E=   -1728.1006240087 Eh 11.505 eV  92793.0 cm**-1
      0.49406 [    30]: 2122000
      0.45744 [   126]: 1222000
      0.00835 [   171]: 1122100
      0.00603 [   267]: 0222100
      0.00383 [     0]: 2221000
      0.00317 [   173]: 1122001
      0.00309 [    77]: 2022001
ROOT   3:  E=   -1727.9766723194 Eh 14.878 eV 119997.3 cm**-1
      0.95277 [     4]: 2212000
      0.02033 [   136]: 1212100
      0.00790 [    42]: 2112001
      0.00319 [    40]: 2112100

                 <<<<<<<<<<<<<<<<<<INITIAL CI STATE CHECK>>>>>>>>>>>>>>>>>>

   E(CAS)= -1728.523420204 Eh DE=     0.000000000
   --- Energy gap subspaces: Ext-Act = -0.408   Act-Int = 0.125
   --- Adjusted l-shift: Up(Ext-Act) = 0.82   Dn(Act-Int) = 1.00
   N(occ)=  1.98088 1.98409 1.98106 1.00479 0.01652 0.01933 0.01333
   ||g|| =      0.484390237 Max(G)=     0.105225442 Rot=38,11
   --- Orbital Update [   SuperCI]
   --- Perturbative SuperCI
   SUPERCI-ITER   0: DE=    -0.077944548 <r|r>=      0.161835434
   <Psi(SX)|Psi(SX)>=      1.010783303 DE(SX)=-0.077944548
   Largest coefficient in the normalized |SX> wavefunction= 0.370082942
   --- Forming Natural Orbitals
   --- Density off from convergence (9.893e-01). Exact active Fock build

MACRO-ITERATION   2: 
   --- Canonicalize Internal Space
   --- Canonicalize External Space
   --- Inactive Energy E0 = -1709.10667287 Eh
CI-ITERATION   0: 
 -1726.709071440   0.000000000000 (    0.00)
 -1726.684056813   0.000000000000
 -1726.589439846   0.000000000000
 -1726.459440607   0.000000000000
   CI-PROBLEM SOLVED
   DENSITIES MADE
CI-ITERATION   0: 
 -1727.668600089   0.000000000000 (    0.00)
 -1727.632290160   0.000000000000
 -1727.581136361   0.000000000000
 -1727.508583324   0.000000000000
   CI-PROBLEM SOLVED
   DENSITIES MADE
CI-ITERATION   0: 
 -1728.536719066   0.000000000000 (    0.00)
 -1728.170522931   0.000000000000
 -1728.045738369   0.000000000000
 -1727.941094051   0.000000000000
   CI-PROBLEM SOLVED
   DENSITIES MADE
   E(CAS)= -1728.536719066 Eh DE=    -0.013298863
   --- Energy gap subspaces: Ext-Act = -1.131   Act-Int = 0.099
   --- Adjusted l-shift: Up(Ext-Act) = 1.50   Dn(Act-Int) = 1.00
   N(occ)=  1.98465 1.98227 1.98221 1.00037 0.01798 0.01788 0.01464
   ||g|| =      0.288004582 Max(G)=     0.091479729 Rot=88,8
   --- Orbital Update [   SuperCI]
   --- Perturbative SuperCI
   SUPERCI-ITER   0: DE=    -0.037300259 <r|r>=      0.002691237
   <Psi(SX)|Psi(SX)>=      0.999863908 DE(SX)=-0.037300259
   Largest coefficient in the normalized |SX> wavefunction= 0.191582983
   --- Forming Natural Orbitals
   --- Density close to convergence (3.250e-03). Approximate active Fock build

MACRO-ITERATION   3: 
   --- Canonicalize Internal Space
   --- Canonicalize External Space
   --- Inactive Energy E0 = -1709.14320364 Eh
CI-ITERATION   0: 
 -1726.739980507   0.000000000000 (    0.00)
 -1726.714279765   0.000000000000
 -1726.634294369   0.000000000000
 -1726.546835001   0.000000000000
   CI-PROBLEM SOLVED
   DENSITIES MADE
CI-ITERATION   0: 
 -1727.683053826   0.000000000000 (    0.00)
 -1727.648314593   0.000000000000
 -1727.604726732   0.000000000000
 -1727.529774602   0.000000000000
   CI-PROBLEM SOLVED
   DENSITIES MADE
CI-ITERATION   0: 
 -1728.542263922   0.000000000000 (    0.00)
 -1728.163291446   0.000000000000
 -1728.046495910   0.000000000000
 -1727.945560456   0.000000000000
   CI-PROBLEM SOLVED
   DENSITIES MADE
   E(CAS)= -1728.542263922 Eh DE=    -0.005544856
   --- Energy gap subspaces: Ext-Act = -1.058   Act-Int = 0.095
   N(occ)=  1.98309 1.98180 1.98146 1.00015 0.01850 0.01841 0.01660
   ||g|| =      0.152669739 Max(G)=     0.047037349 Rot=88,8
   --- Orbital Update [   SuperCI]
   --- Perturbative SuperCI
   SUPERCI-ITER   0: DE=    -0.026847847 <r|r>=      0.001051956
   <Psi(SX)|Psi(SX)>=      0.999974128 DE(SX)=-0.026847847
   Largest coefficient in the normalized |SX> wavefunction= 0.239622687
   --- Forming Natural Orbitals
   --- Density close to convergence (2.581e-03). Approximate active Fock build

MACRO-ITERATION   4: 
   --- Canonicalize Internal Space
   --- Canonicalize External Space
   --- Inactive Energy E0 = -1709.13554522 Eh
CI-ITERATION   0: 
 -1726.714565670   0.000000000000 (    0.00)
 -1726.680137912   0.000000000000
 -1726.606809872   0.000000000000
 -1726.530037841   0.000000000000
   CI-PROBLEM SOLVED
   DENSITIES MADE
CI-ITERATION   0: 
 -1727.667398802   0.000000000000 (    0.00)
 -1727.638267029   0.000000000000
 -1727.587795559   0.000000000000
 -1727.516414036   0.000000000000
   CI-PROBLEM SOLVED
   DENSITIES MADE
CI-ITERATION   0: 
 -1728.541257061   0.000000000000 (    0.00)
 -1728.158559379   0.000000000000
 -1728.035843762   0.000000000000
 -1727.932207525   0.000000000000
   CI-PROBLEM SOLVED
   DENSITIES MADE
   E(CAS)= -1728.541257061 Eh DE=     0.001006861
   --- Energy gap subspaces: Ext-Act = -1.059   Act-Int = 0.089
   N(occ)=  1.98287 1.98256 1.98213 1.00013 0.01778 0.01767 0.01684
   ||g|| =      0.091427785 Max(G)=     0.021753419 Rot=87,8
   --- Warning! Gradient and energy increasing!
   --- Orbital Update [   SuperCI]
   --- Perturbative SuperCI
   SUPERCI-ITER   0: DE=    -0.067526911 <r|r>=      0.026655749
   <Psi(SX)|Psi(SX)>=      0.999983673 DE(SX)=-0.067526911
   Largest coefficient in the normalized |SX> wavefunction= 0.544948118
   --- Forming Natural Orbitals
   --- Density off from convergence (3.368e-03). Exact active Fock build

MACRO-ITERATION   5: 
   --- Canonicalize Internal Space
   --- Canonicalize External Space
   --- Inactive Energy E0 = -1709.14597489 Eh
CI-ITERATION   0: 
 -1726.669867675   0.000000000000 (    0.00)
 -1726.639797640   0.000000000000
 -1726.574579867   0.000000000000
 -1726.503146079   0.000000000000
   CI-PROBLEM SOLVED
   DENSITIES MADE
CI-ITERATION   0: 
 -1727.638509128   0.000000000000 (    0.00)
 -1727.615366626   0.000000000000
 -1727.563999543   0.000000000000
 -1727.495761758   0.000000000000
   CI-PROBLEM SOLVED
   DENSITIES MADE
CI-ITERATION   0: 
 -1728.535151854   0.000000000000 (    0.00)
 -1728.148136363   0.000000000000
 -1728.038893866   0.000000000000
 -1727.935808198   0.000000000000
   CI-PROBLEM SOLVED
   DENSITIES MADE
   E(CAS)= -1728.535151854 Eh DE=     0.006105207
   --- Energy gap subspaces: Ext-Act = -1.029   Act-Int = 0.093
   N(occ)=  1.98342 1.98369 1.98434 1.00018 0.01663 0.01651 0.01522
   ||g|| =      0.082790835 Max(G)=    -0.027080435 Rot=36,21
   --- Warning! Gradient and energy increasing!
   --- Orbital Update [   SuperCI]
   --- Perturbative SuperCI
   SUPERCI-ITER   0: DE=    -0.085013898 <r|r>=      0.057977657
   <Psi(SX)|Psi(SX)>=      0.999818432 DE(SX)=-0.085013898
   Largest coefficient in the normalized |SX> wavefunction= 0.608825727
   --- Forming Natural Orbitals
   --- Density off from convergence (1.850e-03). Exact active Fock build

MACRO-ITERATION   6: 
   --- Canonicalize Internal Space
   --- Canonicalize External Space
   --- Inactive Energy E0 = -1709.13024221 Eh
CI-ITERATION   0: 
 -1726.616300770   0.000000000000 (    0.00)
 -1726.583442104   0.000000000000
 -1726.544652269   0.000000000000
 -1726.468522870   0.000000000000
   CI-PROBLEM SOLVED
   DENSITIES MADE
CI-ITERATION   0: 
 -1727.651998496   0.000000000000 (    0.00)
 -1727.560624986   0.000000000000
 -1727.559136762   0.000000000000
 -1727.474531881   0.000000000000
   CI-PROBLEM SOLVED
   DENSITIES MADE
CI-ITERATION   0: 
 -1728.534960475   0.000000000000 (    0.00)
 -1728.148613427   0.000000000000
 -1728.014088229   0.000000000000
 -1727.929262122   0.000000000000
   CI-PROBLEM SOLVED
   DENSITIES MADE
   E(CAS)= -1728.534960475 Eh DE=     0.000191379
   --- Energy gap subspaces: Ext-Act = -1.044   Act-Int = 0.089
   N(occ)=  1.98349 1.98572 1.98303 1.00012 0.01671 0.01656 0.01436
   ||g|| =      0.070669180 Max(G)=    -0.026903630 Rot=37,16
   --- Warning! Gradient and energy increasing!
   --- Orbital Update [   SuperCI]
   --- Perturbative SuperCI
   SUPERCI-ITER   0: DE=    -0.053296918 <r|r>=      0.007947106
   <Psi(SX)|Psi(SX)>=      1.000091093 DE(SX)=-0.053296918
   Largest coefficient in the normalized |SX> wavefunction= 0.161375073
   --- Forming Natural Orbitals
   --- Density off from convergence (2.447e-03). Exact active Fock build

MACRO-ITERATION   7: 
   --- Canonicalize Internal Space
   --- Canonicalize External Space
   --- Inactive Energy E0 = -1709.14037606 Eh
CI-ITERATION   0: 
 -1726.628454264   0.000000000000 (    0.00)
 -1726.604194579   0.000000000000
 -1726.549675696   0.000000000000
 -1726.474051455   0.000000000000
   CI-PROBLEM SOLVED
   DENSITIES MADE
CI-ITERATION   0: 
 -1727.627996015   0.000000000000 (    0.00)
 -1727.598290424   0.000000000000
 -1727.552397056   0.000000000000
 -1727.476650154   0.000000000000
   CI-PROBLEM SOLVED
   DENSITIES MADE
CI-ITERATION   0: 
 -1728.540089095   0.000000000000 (    0.00)
 -1728.156676595   0.000000000000
 -1728.012692084   0.000000000000
 -1727.945206164   0.000000000000
   CI-PROBLEM SOLVED
   DENSITIES MADE
   E(CAS)= -1728.540089095 Eh DE=    -0.005128619
   --- Energy gap subspaces: Ext-Act = -1.038   Act-Int = 0.094
   N(occ)=  1.98389 1.98296 1.98242 1.00016 0.01714 0.01719 0.01625
   ||g|| =      0.050557050 Max(G)=     0.021196240 Rot=38,21
   --- Orbital Update [   SuperCI]
   --- Perturbative SuperCI
   SUPERCI-ITER   0: DE=    -0.096001860 <r|r>=      0.007264101
   <Psi(SX)|Psi(SX)>=      0.999927148 DE(SX)=-0.096001860
   Largest coefficient in the normalized |SX> wavefunction= 0.550028701
   --- Forming Natural Orbitals
   --- Density off from convergence (3.470e-03). Exact active Fock build

MACRO-ITERATION   8: 
   --- Canonicalize Internal Space
   --- Canonicalize External Space
   --- Inactive Energy E0 = -1709.12139752 Eh
CI-ITERATION   0: 
 -1726.687858803   0.000000000000 (    0.00)
 -1726.654561803   0.000000000000
 -1726.586069124   0.000000000000
 -1726.515006555   0.000000000000
   CI-PROBLEM SOLVED
   DENSITIES MADE
CI-ITERATION   0: 
 -1727.642665639   0.000000000000 (    0.00)
 -1727.637710625   0.000000000000
 -1727.568699107   0.000000000000
 -1727.512831768   0.000000000000
   CI-PROBLEM SOLVED
   DENSITIES MADE
CI-ITERATION   0: 
 -1728.536129602   0.000000000000 (    0.00)
 -1728.147457377   0.000000000000
 -1728.004021634   0.000000000000
 -1727.932114975   0.000000000000
   CI-PROBLEM SOLVED
   DENSITIES MADE
   E(CAS)= -1728.536129602 Eh DE=     0.003959493
   --- Energy gap subspaces: Ext-Act = -0.955   Act-Int = 0.089
   N(occ)=  1.98544 1.98289 1.98227 1.00013 0.01745 0.01718 0.01465
   ||g|| =      0.068965565 Max(G)=    -0.042984711 Rot=36,15
   --- Orbital Update [   SuperCI]
   --- Warning: SX update oscillating (4). Setting SX to perturbative update
   --- Perturbative SuperCI
   SUPERCI-ITER   0: DE=    -0.078248530 <r|r>=      0.176343868
   <Psi(SX)|Psi(SX)>=      0.999815378 DE(SX)=-0.078248530
   Largest coefficient in the normalized |SX> wavefunction= 0.685382587
   --- Forming Natural Orbitals
   --- Density close to convergence (1.445e-03). Approximate active Fock build

MACRO-ITERATION   9: 
   --- Canonicalize Internal Space
   --- Canonicalize External Space
   --- Inactive Energy E0 = -1709.12197418 Eh
CI-ITERATION   0: 
 -1726.630591846   0.000000000000 (    0.00)
 -1726.607652863   0.000000000000
 -1726.557343522   0.000000000000
 -1726.482416312   0.000000000000
   CI-PROBLEM SOLVED
   DENSITIES MADE
CI-ITERATION   0: 
 -1727.645768768   0.000000000000 (    0.00)
 -1727.587090862   0.000000000000
 -1727.558381223   0.000000000000
 -1727.480040889   0.000000000000
   CI-PROBLEM SOLVED
   DENSITIES MADE
CI-ITERATION   0: 
 -1728.538808810   0.000000000000 (    0.00)
 -1728.151003409   0.000000000000
 -1728.005028906   0.000000000000
 -1727.939160926   0.000000000000
   CI-PROBLEM SOLVED
   DENSITIES MADE
   E(CAS)= -1728.538808810 Eh DE=    -0.002679209
   --- Energy gap subspaces: Ext-Act = -1.034   Act-Int = 0.091
   N(occ)=  1.98507 1.98287 1.98203 1.00014 0.01788 0.01709 0.01492
   ||g|| =      0.049144237 Max(G)=    -0.019281676 Rot=27,21
   --- Orbital Update [   SuperCI]
   --- Warning: SX update oscillating (4). Setting SX to perturbative update
   --- Perturbative SuperCI
   SUPERCI-ITER   0: DE=    -0.042340592 <r|r>=      0.033862126
   <Psi(SX)|Psi(SX)>=      1.000012450 DE(SX)=-0.042340592
   Largest coefficient in the normalized |SX> wavefunction= 0.287915264
   --- Forming Natural Orbitals
   --- Density off from convergence (4.493e-03). Exact active Fock build

MACRO-ITERATION  10: 
   --- Canonicalize Internal Space
   --- Canonicalize External Space
   --- Inactive Energy E0 = -1709.11592804 Eh
CI-ITERATION   0: 
 -1726.597509215   0.000000000000 (    0.00)
 -1726.580087553   0.000000000000
 -1726.551890557   0.000000000000
 -1726.472385438   0.000000000000
   CI-PROBLEM SOLVED
   DENSITIES MADE
CI-ITERATION   0: 
 -1727.651688271   0.000000000000 (    0.00)
 -1727.564211448   0.000000000000
 -1727.545659619   0.000000000000
 -1727.477567459   0.000000000000
   CI-PROBLEM SOLVED
   DENSITIES MADE
CI-ITERATION   0: 
 -1728.541225815   0.000000000000 (    0.00)
 -1728.153167739   0.000000000000
 -1728.005716975   0.000000000000
 -1727.937490663   0.000000000000
   CI-PROBLEM SOLVED
   DENSITIES MADE
   E(CAS)= -1728.541225815 Eh DE=    -0.002417005
   --- Energy gap subspaces: Ext-Act = -1.028   Act-Int = 0.090
   N(occ)=  1.98444 1.98269 1.98192 1.00014 0.01804 0.01722 0.01555
   ||g|| =      0.046946266 Max(G)=    -0.018040505 Rot=35,21
   --- Orbital Update [   SuperCI]
   --- Warning: SX update oscillating (4). Setting SX to perturbative update
   --- Perturbative SuperCI
   SUPERCI-ITER   0: DE=    -0.027012720 <r|r>=      0.000117561
   <Psi(SX)|Psi(SX)>=      0.999997750 DE(SX)=-0.027012720
   Largest coefficient in the normalized |SX> wavefunction= 0.213686160
   --- Forming Natural Orbitals
   --- Density off from convergence (1.927e-03). Exact active Fock build

MACRO-ITERATION  11: 
   --- Canonicalize Internal Space
   --- Canonicalize External Space
   --- Inactive Energy E0 = -1709.13758586 Eh
CI-ITERATION   0: 
 -1726.643613633   0.000000000000 (    0.00)
 -1726.621996229   0.000000000000
 -1726.575700652   0.000000000000
 -1726.497961696   0.000000000000
   CI-PROBLEM SOLVED
   DENSITIES MADE
CI-ITERATION   0: 
 -1727.651753426   0.000000000000 (    0.00)
 -1727.587590920   0.000000000000
 -1727.571760814   0.000000000000
 -1727.491603697   0.000000000000
   CI-PROBLEM SOLVED
   DENSITIES MADE
CI-ITERATION   0: 
 -1728.542828913   0.000000000000 (    0.00)
 -1728.152610468   0.000000000000
 -1728.002466032   0.000000000000
 -1727.950549731   0.000000000000
   CI-PROBLEM SOLVED
   DENSITIES MADE
   E(CAS)= -1728.542828913 Eh DE=    -0.001603098
   --- Energy gap subspaces: Ext-Act = -1.039   Act-Int = 0.092
   N(occ)=  1.98342 1.98237 1.98172 1.00013 0.01826 0.01747 0.01663
   ||g|| =      0.043099309 Max(G)=    -0.021941290 Rot=21,13
   --- Orbital Update [   SuperCI]
   --- Warning: SX update oscillating (4). Setting SX to perturbative update
   --- Perturbative SuperCI
   SUPERCI-ITER   0: DE=    -0.050043539 <r|r>=      0.001592906
   <Psi(SX)|Psi(SX)>=      1.000002969 DE(SX)=-0.050043539
   Largest coefficient in the normalized |SX> wavefunction= 0.370608009
   --- Forming Natural Orbitals
   --- Density close to convergence (9.676e-04). Approximate active Fock build

MACRO-ITERATION  12: 
   --- Canonicalize Internal Space
   --- Canonicalize External Space
   --- Inactive Energy E0 = -1709.16499504 Eh
CI-ITERATION   0: 
 -1726.632756469   0.000000000000 (    0.00)
 -1726.600952184   0.000000000000
 -1726.562024447   0.000000000000
 -1726.487521152   0.000000000000
   CI-PROBLEM SOLVED
   DENSITIES MADE
CI-ITERATION   0: 
 -1727.639516982   0.000000000000 (    0.00)
 -1727.583483806   0.000000000000
 -1727.559468387   0.000000000000
 -1727.481017171   0.000000000000
   CI-PROBLEM SOLVED
   DENSITIES MADE
CI-ITERATION   0: 
 -1728.538187758   0.000000000000 (    0.00)
 -1728.143615850   0.000000000000
 -1727.993803337   0.000000000000
 -1727.953787510   0.000000000000
   CI-PROBLEM SOLVED
   DENSITIES MADE
   E(CAS)= -1728.538187758 Eh DE=     0.004641155
   --- Energy gap subspaces: Ext-Act = -1.027   Act-Int = 0.086
   N(occ)=  1.98526 1.98266 1.98203 1.00012 0.01793 0.01722 0.01479
   ||g|| =      0.065440980 Max(G)=    -0.031152591 Rot=21,13
   --- Orbital Update [   SuperCI]
   --- Warning: SX update oscillating (5). Setting SX to perturbative update
   --- Perturbative SuperCI
   SUPERCI-ITER   0: DE=    -0.075717853 <r|r>=      0.006067533
   <Psi(SX)|Psi(SX)>=      1.000013102 DE(SX)=-0.075717853
   Largest coefficient in the normalized |SX> wavefunction= 0.531762079
   --- Forming Natural Orbitals
   --- Density off from convergence (3.417e-03). Exact active Fock build

MACRO-ITERATION  13: 
   --- Canonicalize Internal Space
   --- Canonicalize External Space
   --- Inactive Energy E0 = -1709.24386132 Eh
CI-ITERATION   0: 
 -1726.655637005   0.000000000000 (    0.00)
 -1726.605834096   0.000000000000
 -1726.562084574   0.000000000000
 -1726.487082671   0.000000000000
   CI-PROBLEM SOLVED
   DENSITIES MADE
CI-ITERATION   0: 
 -1727.642375820   0.000000000000 (    0.00)
 -1727.598023542   0.000000000000
 -1727.564560863   0.000000000000
 -1727.486008614   0.000000000000
   CI-PROBLEM SOLVED
   DENSITIES MADE
CI-ITERATION   0: 
 -1728.537130425   0.000000000000 (    0.01)
 -1728.151196576   0.000000000000
 -1727.997533352   0.000000000000
 -1727.984075443   0.000000000000
   CI-PROBLEM SOLVED
   DENSITIES MADE
   E(CAS)= -1728.537130425 Eh DE=     0.001057333
   --- Energy gap subspaces: Ext-Act = -1.028   Act-Int = 0.077
   N(occ)=  1.98521 1.98301 1.98217 1.00017 0.01776 0.01677 0.01490
   ||g|| =      0.076367207 Max(G)=    -0.045145286 Rot=21,14
   --- Orbital Update [   SuperCI]
   --- Warning: SX update oscillating (6). Setting SX to perturbative update
   --- Perturbative SuperCI
   SUPERCI-ITER   0: DE=    -0.110404935 <r|r>=      0.027449747
   <Psi(SX)|Psi(SX)>=      0.999831721 DE(SX)=-0.110404935
   Largest coefficient in the normalized |SX> wavefunction= 0.576177575
   --- Forming Natural Orbitals
   --- Density off from convergence (2.090e-03). Exact active Fock build

MACRO-ITERATION  14: 
   --- Canonicalize Internal Space
   --- Canonicalize External Space
   --- Inactive Energy E0 = -1709.18834581 Eh
CI-ITERATION   0: 
 -1726.682538084   0.000000000000 (    0.00)
 -1726.643486532   0.000000000000
 -1726.566205849   0.000000000000
 -1726.494297413   0.000000000000
   CI-PROBLEM SOLVED
   DENSITIES MADE
CI-ITERATION   0: 
 -1727.642344611   0.000000000000 (    0.00)
 -1727.627046103   0.000000000000
 -1727.556027747   0.000000000000
 -1727.515037495   0.000000000000
   CI-PROBLEM SOLVED
   DENSITIES MADE
CI-ITERATION   0: 
 -1728.537360695   0.000000000000 (    0.00)
 -1728.146264889   0.000000000000
 -1727.992911131   0.000000000000
 -1727.965736151   0.000000000000
   CI-PROBLEM SOLVED
   DENSITIES MADE
   E(CAS)= -1728.537360695 Eh DE=    -0.000230270
   --- Energy gap subspaces: Ext-Act = -1.042   Act-Int = 0.079
   N(occ)=  1.98434 1.98373 1.98209 1.00014 0.01782 0.01605 0.01582
   ||g|| =      0.075488120 Max(G)=     0.036494153 Rot=21,14
   --- Orbital Update [   SuperCI]
   --- Warning: SX update oscillating (6). Setting SX to perturbative update
   --- Perturbative SuperCI
   SUPERCI-ITER   0: DE=    -0.095250166 <r|r>=      0.033345051
   <Psi(SX)|Psi(SX)>=      0.999818444 DE(SX)=-0.095250166
   Largest coefficient in the normalized |SX> wavefunction= 0.571943728
   --- Forming Natural Orbitals
   --- Density off from convergence (1.779e-03). Exact active Fock build

MACRO-ITERATION  15: 
   --- Canonicalize Internal Space
   --- Canonicalize External Space
   --- Inactive Energy E0 = -1709.23780543 Eh
CI-ITERATION   0: 
 -1726.670789393   0.000000000000 (    0.00)
 -1726.622120232   0.000000000000
 -1726.543207743   0.000000000000
 -1726.468423596   0.000000000000
   CI-PROBLEM SOLVED
   DENSITIES MADE
CI-ITERATION   0: 
 -1727.646024496   0.000000000000 (    0.00)
 -1727.613041946   0.000000000000
 -1727.559083113   0.000000000000
 -1727.493033409   0.000000000000
   CI-PROBLEM SOLVED
   DENSITIES MADE
CI-ITERATION   0: 
 -1728.537329274   0.000000000000 (    0.01)
 -1728.149865881   0.000000000000
 -1727.994246365   0.000000000000
 -1727.977583085   0.000000000000
   CI-PROBLEM SOLVED
   DENSITIES MADE
   E(CAS)= -1728.537329274 Eh DE=     0.000031420
   --- Energy gap subspaces: Ext-Act = -1.066   Act-Int = 0.078
   N(occ)=  1.98464 1.98398 1.98215 1.00014 0.01777 0.01566 0.01566
   ||g|| =      0.078699510 Max(G)=    -0.047527601 Rot=21,14
   --- Orbital Update [   SuperCI]
   --- Warning: SX update oscillating (7). Setting SX to perturbative update
   --- Perturbative SuperCI
   SUPERCI-ITER   0: DE=    -0.097998426 <r|r>=      0.014977294
   <Psi(SX)|Psi(SX)>=      1.000011064 DE(SX)=-0.097998426
   Largest coefficient in the normalized |SX> wavefunction= 0.677446561
   --- Forming Natural Orbitals
   --- Density off from convergence (1.610e-03). Exact active Fock build

MACRO-ITERATION  16: 
   --- Canonicalize Internal Space
   --- Canonicalize External Space
   --- Inactive Energy E0 = -1709.27813808 Eh
CI-ITERATION   0: 
 -1726.636608373   0.000000000000 (    0.00)
 -1726.573563167   0.000000000000
 -1726.506210556   0.000000000000
 -1726.439968961   0.000000000000
   CI-PROBLEM SOLVED
   DENSITIES MADE
CI-ITERATION   0: 
 -1727.628225250   0.000000000000 (    0.00)
 -1727.588453609   0.000000000000
 -1727.537519397   0.000000000000
 -1727.465584659   0.000000000000
   CI-PROBLEM SOLVED
   DENSITIES MADE
CI-ITERATION   0: 
 -1728.529048540   0.000000000000 (    0.00)
 -1728.139003757   0.000000000000
 -1727.988345742   0.000000000000
 -1727.983000692   0.000000000000
   CI-PROBLEM SOLVED
   DENSITIES MADE
   E(CAS)= -1728.529048540 Eh DE=     0.008280735
   --- Energy gap subspaces: Ext-Act = -1.091   Act-Int = 0.069
   N(occ)=  1.98568 1.98364 1.98228 1.00014 0.01765 0.01610 0.01450
   ||g|| =      0.084402579 Max(G)=     0.046433014 Rot=21,14
   --- Orbital Update [   SuperCI]
   --- Warning: SX update oscillating (8). Setting SX to perturbative update
   SUPERCI-ITER   0: DE=    -0.109659535 <r|r>=      0.023578144
   <Psi(SX)|Psi(SX)>=      1.000009165 DE(SX)=-0.109659535
   Largest coefficient in the normalized |SX> wavefunction= 0.756040863
   --- Forming Natural Orbitals
   --- Density off from convergence (1.621e-03). Exact active Fock build

MACRO-ITERATION  17: 
   --- Canonicalize Internal Space
   --- Canonicalize External Space
   --- Inactive Energy E0 = -1709.29350868 Eh
CI-ITERATION   0: 
 -1726.638938233   0.000000000000 (    0.00)
 -1726.572787635   0.000000000000
 -1726.516665402   0.000000000000
 -1726.446331603   0.000000000000
   CI-PROBLEM SOLVED
   DENSITIES MADE
CI-ITERATION   0: 
 -1727.629557709   0.000000000000 (    0.00)
 -1727.589439981   0.000000000000
 -1727.540178255   0.000000000000
 -1727.466458870   0.000000000000
   CI-PROBLEM SOLVED
   DENSITIES MADE
CI-ITERATION   0: 
 -1728.529096141   0.000000000000 (    0.00)
 -1728.140250704   0.000000000000
 -1727.992872597   0.000000000000
 -1727.982179509   0.000000000000
   CI-PROBLEM SOLVED
   DENSITIES MADE
   E(CAS)= -1728.529096141 Eh DE=    -0.000047601
   --- Energy gap subspaces: Ext-Act = -1.074   Act-Int = 0.070
   N(occ)=  1.98587 1.98323 1.98220 1.00014 0.01772 0.01649 0.01434
   ||g|| =      0.088611461 Max(G)=    -0.060225014 Rot=21,14
   --- Orbital Update [   SuperCI]
   --- Warning: SX update oscillating (8). Setting SX to perturbative update
   SUPERCI-ITER   0: DE=    -0.111029914 <r|r>=      0.025663109
   <Psi(SX)|Psi(SX)>=      1.000023400 DE(SX)=-0.111029914
   Largest coefficient in the normalized |SX> wavefunction= 0.765596953
   --- Forming Natural Orbitals
   --- Density off from convergence (4.514e-04). Exact active Fock build

MACRO-ITERATION  18: 
   --- Canonicalize Internal Space
   --- Canonicalize External Space
   --- Inactive Energy E0 = -1709.28559312 Eh
CI-ITERATION   0: 
 -1726.636294789   0.000000000000 (    0.00)
 -1726.571821245   0.000000000000
 -1726.526797855   0.000000000000
 -1726.450273011   0.000000000000
   CI-PROBLEM SOLVED
   DENSITIES MADE
CI-ITERATION   0: 
 -1727.628311943   0.000000000000 (    0.00)
 -1727.587340402   0.000000000000
 -1727.543822627   0.000000000000
 -1727.466049657   0.000000000000
   CI-PROBLEM SOLVED
   DENSITIES MADE
CI-ITERATION   0: 
 -1728.529612681   0.000000000000 (    0.01)
 -1728.139347324   0.000000000000
 -1727.992450329   0.000000000000
 -1727.982574570   0.000000000000
   CI-PROBLEM SOLVED
   DENSITIES MADE
   E(CAS)= -1728.529612681 Eh DE=    -0.000516541
   --- Energy gap subspaces: Ext-Act = -1.063   Act-Int = 0.069
   N(occ)=  1.98580 1.98298 1.98216 1.00014 0.01777 0.01675 0.01439
   ||g|| =      0.080433931 Max(G)=     0.051886566 Rot=21,14
   --- Orbital Update [   SuperCI]
   --- Warning: SX update oscillating (8). Setting SX to perturbative update
   --- Perturbative SuperCI
   SUPERCI-ITER   0: DE=    -0.109483059 <r|r>=      0.023751928
   <Psi(SX)|Psi(SX)>=      1.000012890 DE(SX)=-0.109483059
   Largest coefficient in the normalized |SX> wavefunction= 0.773516046
   --- Forming Natural Orbitals
   --- Density off from convergence (3.029e-04). Exact active Fock build

MACRO-ITERATION  19: 
   --- Canonicalize Internal Space
   --- Canonicalize External Space
   --- Inactive Energy E0 = -1709.29435983 Eh
CI-ITERATION   0: 
 -1726.633656034   0.000000000000 (    0.00)
 -1726.570411398   0.000000000000
 -1726.530579278   0.000000000000
 -1726.456980487   0.000000000000
   CI-PROBLEM SOLVED
   DENSITIES MADE
CI-ITERATION   0: 
 -1727.627369992   0.000000000000 (    0.00)
 -1727.586132116   0.000000000000
 -1727.543478166   0.000000000000
 -1727.464816564   0.000000000000
   CI-PROBLEM SOLVED
   DENSITIES MADE
CI-ITERATION   0: 
 -1728.529469984   0.000000000000 (    0.00)
 -1728.139418797   0.000000000000
 -1727.995155242   0.000000000000
 -1727.980903194   0.000000000000
   CI-PROBLEM SOLVED
   DENSITIES MADE
   E(CAS)= -1728.529469984 Eh DE=     0.000142697
   --- Energy gap subspaces: Ext-Act = -1.052   Act-Int = 0.069
   N(occ)=  1.98591 1.98281 1.98214 1.00014 0.01777 0.01697 0.01426
   ||g|| =      0.087648331 Max(G)=    -0.063266825 Rot=21,14
   --- Orbital Update [   SuperCI]
   --- Warning: SX update oscillating (9). Setting SX to perturbative update
   SUPERCI-ITER   0: DE=    -0.111178402 <r|r>=      0.023867948
   <Psi(SX)|Psi(SX)>=      0.999955201 DE(SX)=-0.111178402
   Largest coefficient in the normalized |SX> wavefunction= 0.789249046
   --- Forming Natural Orbitals
   --- Density off from convergence (2.514e-04). Exact active Fock build

MACRO-ITERATION  20: 
   --- Canonicalize Internal Space
   --- Canonicalize External Space
   --- Inactive Energy E0 = -1709.29134258 Eh
CI-ITERATION   0: 
 -1726.641457703   0.000000000000 (    0.00)
 -1726.575227749   0.000000000000
 -1726.541720758   0.000000000000
 -1726.470985789   0.000000000000
   CI-PROBLEM SOLVED
   DENSITIES MADE
CI-ITERATION   0: 
 -1727.625901264   0.000000000000 (    0.00)
 -1727.591328432   0.000000000000
 -1727.548841061   0.000000000000
 -1727.471779403   0.000000000000
   CI-PROBLEM SOLVED
   DENSITIES MADE
CI-ITERATION   0: 
 -1728.529849952   0.000000000000 (    0.00)
 -1728.138032871   0.000000000000
 -1727.996646989   0.000000000000
 -1727.981416537   0.000000000000
   CI-PROBLEM SOLVED
   DENSITIES MADE
   E(CAS)= -1728.529849952 Eh DE=    -0.000379967
   --- Energy gap subspaces: Ext-Act = -1.041   Act-Int = 0.067
   N(occ)=  1.98580 1.98261 1.98208 1.00014 0.01783 0.01715 0.01438
   ||g|| =      0.081536219 Max(G)=     0.054841086 Rot=21,14
   --- Orbital Update [   SuperCI]
   --- Warning: SX update oscillating (9). Setting SX to perturbative update
   --- Perturbative SuperCI
   SUPERCI-ITER   0: DE=    -0.111238696 <r|r>=      0.024247980
   <Psi(SX)|Psi(SX)>=      1.000107555 DE(SX)=-0.111238696
   Largest coefficient in the normalized |SX> wavefunction= 0.801014789
   --- Forming Natural Orbitals
   --- Density off from convergence (3.101e-04). Exact active Fock build

MACRO-ITERATION  21: 
   --- Canonicalize Internal Space
   --- Canonicalize External Space
   --- Inactive Energy E0 = -1709.29516090 Eh
CI-ITERATION   0: 
 -1726.648253667   0.000000000000 (    0.00)
 -1726.585017607   0.000000000000
 -1726.547108056   0.000000000000
 -1726.485970671   0.000000000000
   CI-PROBLEM SOLVED
   DENSITIES MADE
CI-ITERATION   0: 
 -1727.625848843   0.000000000000 (    0.00)
 -1727.599445904   0.000000000000
 -1727.548771389   0.000000000000
 -1727.477304179   0.000000000000
   CI-PROBLEM SOLVED
   DENSITIES MADE
CI-ITERATION   0: 
 -1728.529948350   0.000000000000 (    0.00)
 -1728.137494631   0.000000000000
 -1727.998360733   0.000000000000
 -1727.978100457   0.000000000000
   CI-PROBLEM SOLVED
   DENSITIES MADE
   E(CAS)= -1728.529948350 Eh DE=    -0.000098398
   --- Energy gap subspaces: Ext-Act = -1.034   Act-Int = 0.068
   N(occ)=  1.98568 1.98249 1.98203 1.00013 0.01781 0.01733 0.01454
   ||g|| =      0.089035917 Max(G)=    -0.064905207 Rot=21,14
   --- Orbital Update [   SuperCI]
   --- Warning: SX update oscillating (9). Setting SX to perturbative update
   SUPERCI-ITER   0: DE=    -0.112425333 <r|r>=      0.026577828
   <Psi(SX)|Psi(SX)>=      0.999367283 DE(SX)=-0.112425333
   Largest coefficient in the normalized |SX> wavefunction= 0.793800880
   --- Forming Natural Orbitals
   --- Density off from convergence (2.673e-04). Exact active Fock build

MACRO-ITERATION  22: 
   --- Canonicalize Internal Space
   --- Canonicalize External Space
   --- Inactive Energy E0 = -1709.27438048 Eh
CI-ITERATION   0: 
 -1726.659938331   0.000000000000 (    0.00)
 -1726.594803509   0.000000000000
 -1726.561778647   0.000000000000
 -1726.500577794   0.000000000000
   CI-PROBLEM SOLVED
   DENSITIES MADE
CI-ITERATION   0: 
 -1727.624916371   0.000000000000 (    0.00)
 -1727.606452582   0.000000000000
 -1727.555689524   0.000000000000
 -1727.487645227   0.000000000000
   CI-PROBLEM SOLVED
   DENSITIES MADE
CI-ITERATION   0: 
 -1728.530555710   0.000000000000 (    0.01)
 -1728.136013732   0.000000000000
 -1727.994318183   0.000000000000
 -1727.978646011   0.000000000000
   CI-PROBLEM SOLVED
   DENSITIES MADE
   E(CAS)= -1728.530555710 Eh DE=    -0.000607360
   --- Energy gap subspaces: Ext-Act = -1.011   Act-Int = 0.068
   N(occ)=  1.98540 1.98229 1.98195 1.00014 0.01789 0.01750 0.01483
   ||g|| =      0.081206615 Max(G)=     0.054453869 Rot=21,14
   --- Orbital Update [   SuperCI]
   --- Warning: SX update oscillating (9). Setting SX to perturbative update
   --- Perturbative SuperCI
   SUPERCI-ITER   0: DE=    -0.109880509 <r|r>=      0.026660863
   <Psi(SX)|Psi(SX)>=      1.000815170 DE(SX)=-0.109880509
   Largest coefficient in the normalized |SX> wavefunction= 0.772380308
   --- Forming Natural Orbitals
   --- Density off from convergence (4.125e-04). Exact active Fock build

MACRO-ITERATION  23: 
   --- Canonicalize Internal Space
   --- Canonicalize External Space
   --- Inactive Energy E0 = -1709.26438200 Eh
CI-ITERATION   0: 
 -1726.653257200   0.000000000000 (    0.00)
 -1726.598494346   0.000000000000
 -1726.562600841   0.000000000000
 -1726.506607057   0.000000000000
   CI-PROBLEM SOLVED
   DENSITIES MADE
CI-ITERATION   0: 
 -1727.626425059   0.000000000000 (    0.00)
 -1727.600704705   0.000000000000
 -1727.555598635   0.000000000000
 -1727.485299812   0.000000000000
   CI-PROBLEM SOLVED
   DENSITIES MADE
CI-ITERATION   0: 
 -1728.530451213   0.000000000000 (    0.00)
 -1728.134992989   0.000000000000
 -1727.992520569   0.000000000000
 -1727.974096885   0.000000000000
   CI-PROBLEM SOLVED
   DENSITIES MADE
   E(CAS)= -1728.530451213 Eh DE=     0.000104497
   --- Energy gap subspaces: Ext-Act = -1.012   Act-Int = 0.070
   N(occ)=  1.98538 1.98223 1.98196 1.00013 0.01790 0.01758 0.01482
   ||g|| =      0.086873233 Max(G)=    -0.061887355 Rot=21,14
   --- Orbital Update [   SuperCI]
   --- Warning: SX update oscillating (10). Setting SX to perturbative update
   --- Perturbative SuperCI
   SUPERCI-ITER   0: DE=    -0.109626527 <r|r>=      0.028428942
   <Psi(SX)|Psi(SX)>=      1.000790549 DE(SX)=-0.109626527
   Largest coefficient in the normalized |SX> wavefunction= 0.754339428
   --- Forming Natural Orbitals
   --- Density off from convergence (2.963e-04). Exact active Fock build

MACRO-ITERATION  24: 
   --- Canonicalize Internal Space
   --- Canonicalize External Space
   --- Inactive Energy E0 = -1709.24457905 Eh
CI-ITERATION   0: 
 -1726.647289623   0.000000000000 (    0.00)
 -1726.592225096   0.000000000000
 -1726.564623754   0.000000000000
 -1726.503545765   0.000000000000
   CI-PROBLEM SOLVED
   DENSITIES MADE
CI-ITERATION   0: 
 -1727.625524208   0.000000000000 (    0.00)
 -1727.590127686   0.000000000000
 -1727.558051002   0.000000000000
 -1727.484843103   0.000000000000
   CI-PROBLEM SOLVED
   DENSITIES MADE
CI-ITERATION   0: 
 -1728.530628700   0.000000000000 (    0.00)
 -1728.132835380   0.000000000000
 -1727.988003158   0.000000000000
 -1727.975720747   0.000000000000
   CI-PROBLEM SOLVED
   DENSITIES MADE
   E(CAS)= -1728.530628700 Eh DE=    -0.000177487
   --- Energy gap subspaces: Ext-Act = -1.005   Act-Int = 0.069
   N(occ)=  1.98541 1.98220 1.98191 1.00014 0.01792 0.01765 0.01477
   ||g|| =      0.079137796 Max(G)=     0.051281986 Rot=21,14
   --- Orbital Update [   SuperCI]
   --- Warning: SX update oscillating (10). Setting SX to perturbative update
   --- Perturbative SuperCI
   SUPERCI-ITER   0: DE=    -0.108334105 <r|r>=      0.028588028
   <Psi(SX)|Psi(SX)>=      1.001148226 DE(SX)=-0.108334105
   Largest coefficient in the normalized |SX> wavefunction= 0.743497430
   --- Forming Natural Orbitals
   --- Density close to convergence (2.212e-04). Approximate active Fock build

MACRO-ITERATION  25: 
   --- Canonicalize Internal Space
   --- Canonicalize External Space
   --- Inactive Energy E0 = -1709.24003634 Eh
CI-ITERATION   0: 
 -1726.636099523   0.000000000000 (    0.00)
 -1726.593413887   0.000000000000
 -1726.557973774   0.000000000000
 -1726.501435770   0.000000000000
   CI-PROBLEM SOLVED
   DENSITIES MADE
[...]
  Class V2_ij   :	 dE = -0.001007576637 
  Class V0_ia   :	 dE = -0.345827869954 
  Class Vm1_a   :	 dE = -0.097629830979 
  Class V1_i    :	 dE = -0.010927748709 

 --------------------------------------------------------------- 
 	 Total Energy Correction : dE = -1.24889423184891
 --------------------------------------------------------------- 
 	 Zero Order Energy       : E0 = -1728.12358776176984
 --------------------------------------------------------------- 
 	 Total Energy (E0+dE)    : E  = -1729.37248199361875
 --------------------------------------------------------------- 

   *********************
    MULT 2, ROOT 2 
   *********************

  Class V0_ijab :	 dE = -0.539885219140 
  Class Vm1_iab :	 dE = -0.194597968053 
  Class Vm2_ab  :	 dE = -0.053625920976 
  Class V1_ija  :	 dE = -0.009436561194 
  Class V2_ij   :	 dE = -0.001373828985 
  Class V0_ia   :	 dE = -0.370698569930 
  Class Vm1_a   :	 dE = -0.121773772985 
  Class V1_i    :	 dE = 0.002175500628 

 --------------------------------------------------------------- 
 	 Total Energy Correction : dE = -1.28921634063613
 --------------------------------------------------------------- 
 	 Zero Order Energy       : E0 = -1727.93931540204699
 --------------------------------------------------------------- 
 	 Total Energy (E0+dE)    : E  = -1729.22853174268312
 --------------------------------------------------------------- 

   *********************
    MULT 2, ROOT 3 
   *********************

  Class V0_ijab :	 dE = -0.539732973136 
  Class Vm1_iab :	 dE = -0.195866517548 
  Class Vm2_ab  :	 dE = -0.055151926752 
  Class V1_ija  :	 dE = -0.009601969502 
  Class V2_ij   :	 dE = -0.000864630606 
  Class V0_ia   :	 dE = -0.364598986201 
  Class Vm1_a   :	 dE = -0.136180753126 
  Class V1_i    :	 dE = -0.199159708702 

 --------------------------------------------------------------- 
 	 Total Energy Correction : dE = -1.50115746557412
 --------------------------------------------------------------- 
 	 Zero Order Energy       : E0 = -1727.80192730124327
 --------------------------------------------------------------- 
 	 Total Energy (E0+dE)    : E  = -1729.30308476681739
 --------------------------------------------------------------- 

-----------------------
 NEVPT2 TOTAL ENERGIES
-----------------------
# This can be used as input for the MRCI SOC block to replace
# the diagonal energies within the QDPT treatment

STATE   ROOT MULT  Energy/a.u.   MRCI SOC BLOCK INPUT (cm**-1)
   0:    1    2  -1729.372482    EDIAG[0] -379553387.968541
   1:    0    2  -1729.339769    EDIAG[1] -379546208.305354
   2:    3    2  -1729.303085    EDIAG[2] -379538157.037771
   3:    2    2  -1729.228532    EDIAG[3] -379521794.540282
   4:    3    4  -1728.861598    EDIAG[4] -379441261.827151
   5:    2    4  -1728.845761    EDIAG[5] -379437786.078528
   6:    1    4  -1728.836440    EDIAG[6] -379435740.332900
   7:    2    6  -1728.760367    EDIAG[7] -379419044.301377
   8:    0    4  -1728.733185    EDIAG[8] -379413078.595729
   9:    0    6  -1728.209086    EDIAG[9] -379298052.143973
  10:    3    6  -1728.134803    EDIAG[10] -379281748.889978
  11:    1    6  -1727.969499    EDIAG[11] -379245468.820328

-----------------------------
 NEVPT2 TRANSITION ENERGIES
------------------------------

LOWEST ROOT (ROOT 1, MULT 2) =  -1729.372481994 Eh -47058.618 eV

STATE ROOT MULT  DE/a.u.     DE/eV    DE/cm**-1
   1:   0    2   0.032713     0.890   7179.7
   2:   3    2   0.069397     1.888  15230.9
   3:   2    2   0.143950     3.917  31593.4
   4:   3    4   0.510884    13.902 112126.1
   5:   2    4   0.526721    14.333 115601.9
   6:   1    4   0.536042    14.586 117647.6
   7:   2    6   0.612115    16.656 134343.7
   8:   0    4   0.639297    17.396 140309.4
   9:   0    6   1.163396    31.658 255335.8
  10:   3    6   1.237679    33.679 271639.1
  11:   1    6   1.402983    38.177 307919.1

--------------------------------------------
 NEVPT2 CORRECTION TO THE TRANSITION ENERGY
--------------------------------------------
STATE  ROOT MULT DE/a.u. DE/eV 	DE/cm**-1
   1:    0    2   0.458721     12.482 100677.6

   Class     DE/a.u.       DE/eV     DE/cm**-1
   V0_ijab   0.017635      0.480    3870.4  (3.84%)
   Vm1_iab   0.077028      2.096   16905.8  (16.79%)
   Vm2_ab   -0.009623     -0.262   -2111.9  (-2.10%)
   V1_ija   -0.019772     -0.538   -4339.5  (-4.31%)
   V2_ij     0.000117      0.003      25.7  (0.03%)
   V0_ia     0.299710      8.156   65778.9  (65.34%)
   Vm1_a     0.083562      2.274   18339.7  (18.22%)
   V1_i      0.010063      0.274    2208.7  (2.19%)

STATE  ROOT MULT DE/a.u. DE/eV 	DE/cm**-1
   2:    3    2  -0.252263     -6.864 -55365.4

   Class     DE/a.u.       DE/eV     DE/cm**-1
   V0_ijab  -0.001092     -0.030    -239.8  (0.43%)
   Vm1_iab  -0.004746     -0.129   -1041.6  (1.88%)
   Vm2_ab   -0.002120     -0.058    -465.2  (0.84%)
   V1_ija    0.001106      0.030     242.7  (-0.44%)
   V2_ij     0.000143      0.004      31.4  (-0.06%)
   V0_ia    -0.018771     -0.511   -4119.8  (7.44%)
   Vm1_a    -0.038551     -1.049   -8460.9  (15.28%)
   V1_i     -0.188232     -5.122  -41312.1  (74.62%)

STATE  ROOT MULT DE/a.u. DE/eV 	DE/cm**-1
   3:    2    2  -0.040322     -1.097  -8849.7

   Class     DE/a.u.       DE/eV     DE/cm**-1
   V0_ijab  -0.001245     -0.034    -273.2  (3.09%)
   Vm1_iab  -0.003477     -0.095    -763.2  (8.62%)
   Vm2_ab   -0.000594     -0.016    -130.3  (1.47%)
   V1_ija    0.001271      0.035     279.0  (-3.15%)
   V2_ij    -0.000366     -0.010     -80.4  (0.91%)
   V0_ia    -0.024871     -0.677   -5458.5  (61.68%)
   Vm1_a    -0.024144     -0.657   -5299.0  (59.88%)
   V1_i      0.013103      0.357    2875.8  (-32.50%)

STATE  ROOT MULT DE/a.u. DE/eV 	DE/cm**-1
   4:    3    4  -0.050723     -1.380 -11132.4

   Class     DE/a.u.       DE/eV     DE/cm**-1
   V0_ijab   0.017581      0.478    3858.6  (-34.66%)
   Vm1_iab   0.074155      2.018   16275.2  (-146.20%)
   Vm2_ab   -0.000378     -0.010     -83.0  (0.75%)
   V1_ija   -0.020578     -0.560   -4516.3  (40.57%)
   V2_ij     0.000162      0.004      35.6  (-0.32%)
   V0_ia     0.296681      8.073   65114.0  (-584.91%)
   Vm1_a    -0.420511    -11.443  -92291.4  (829.04%)
   V1_i      0.002165      0.059     475.1  (-4.27%)

STATE  ROOT MULT DE/a.u. DE/eV 	DE/cm**-1
   5:    2    4  -0.029932     -0.814  -6569.3

   Class     DE/a.u.       DE/eV     DE/cm**-1
   V0_ijab   0.018198      0.495    3994.1  (-60.80%)
   Vm1_iab   0.077927      2.120   17103.0  (-260.35%)
   Vm2_ab   -0.004774     -0.130   -1047.8  (15.95%)
   V1_ija   -0.021503     -0.585   -4719.3  (71.84%)
   V2_ij     0.000079      0.002      17.4  (-0.26%)
   V0_ia     0.296405      8.066   65053.5  (-990.27%)
   Vm1_a    -0.378400    -10.297  -83049.3  (1264.21%)
   V1_i     -0.017864     -0.486   -3920.8  (59.68%)

STATE  ROOT MULT DE/a.u. DE/eV 	DE/cm**-1
   6:    1    4   0.002395      0.065    525.6

   Class     DE/a.u.       DE/eV     DE/cm**-1
   V0_ijab   0.018320      0.499    4020.7  (764.94%)
   Vm1_iab   0.077642      2.113   17040.5  (3241.97%)
   Vm2_ab   -0.005697     -0.155   -1250.4  (-237.90%)
   V1_ija   -0.021983     -0.598   -4824.8  (-917.91%)
   V2_ij     0.000168      0.005      36.8  (7.00%)
   V0_ia     0.297012      8.082   65186.6  (12401.80%)
   Vm1_a    -0.364345     -9.914  -79964.4  (-15213.29%)
   V1_i      0.001279      0.035     280.6  (53.39%)

STATE  ROOT MULT DE/a.u. DE/eV 	DE/cm**-1
   7:    2    6  -0.853288    -23.219 -187275.0

   Class     DE/a.u.       DE/eV     DE/cm**-1
   V0_ijab   0.017377      0.473    3813.7  (-2.04%)
   Vm1_iab   0.069633      1.895   15282.6  (-8.16%)
   Vm2_ab    0.008190      0.223    1797.5  (-0.96%)
   V1_ija   -0.021113     -0.575   -4633.9  (2.47%)
   V2_ij     0.000273      0.007      60.0  (-0.03%)
   V0_ia     0.296106      8.057   64987.9  (-34.70%)
   Vm1_a    -1.211016    -32.953  -265787.4  (141.92%)
   V1_i     -0.012738     -0.347   -2795.6  (1.49%)

STATE  ROOT MULT DE/a.u. DE/eV 	DE/cm**-1
   8:    0    4   0.163585      4.451  35902.9

   Class     DE/a.u.       DE/eV     DE/cm**-1
   V0_ijab   0.017536      0.477    3848.6  (10.72%)
   Vm1_iab   0.073037      1.987   16029.8  (44.65%)
   Vm2_ab    0.000503      0.014     110.4  (0.31%)
   V1_ija   -0.020573     -0.560   -4515.3  (-12.58%)
   V2_ij     0.000409      0.011      89.7  (0.25%)
   V0_ia     0.293292      7.981   64370.1  (179.29%)
   Vm1_a    -0.205674     -5.597  -45140.3  (-125.73%)
   V1_i      0.005057      0.138    1109.9  (3.09%)

STATE  ROOT MULT DE/a.u. DE/eV 	DE/cm**-1
   9:    0    6  -0.230024     -6.259 -50484.3

   Class     DE/a.u.       DE/eV     DE/cm**-1
   V0_ijab   0.017462      0.475    3832.4  (-7.59%)
   Vm1_iab   0.069470      1.890   15246.9  (-30.20%)
   Vm2_ab    0.008536      0.232    1873.4  (-3.71%)
   V1_ija   -0.021382     -0.582   -4692.7  (9.30%)
   V2_ij     0.000699      0.019     153.4  (-0.30%)
   V0_ia     0.291952      7.944   64076.0  (-126.92%)
   Vm1_a    -0.590121    -16.058  -129516.6  (256.55%)
   V1_i     -0.006639     -0.181   -1457.1  (2.89%)

STATE  ROOT MULT DE/a.u. DE/eV 	DE/cm**-1
  10:    3    6  -0.276427     -7.522 -60668.6

   Class     DE/a.u.       DE/eV     DE/cm**-1
   V0_ijab   0.017485      0.476    3837.5  (-6.33%)
   Vm1_iab   0.070856      1.928   15551.2  (-25.63%)
   Vm2_ab    0.006096      0.166    1337.9  (-2.21%)
   V1_ija   -0.021225     -0.578   -4658.5  (7.68%)
   V2_ij     0.000569      0.015     124.9  (-0.21%)
   V0_ia     0.293277      7.980   64366.8  (-106.10%)
   Vm1_a    -0.588860    -16.024  -129239.9  (213.03%)
   V1_i     -0.054624     -1.486  -11988.6  (19.76%)

STATE  ROOT MULT DE/a.u. DE/eV 	DE/cm**-1
  11:    1    6  -0.042923     -1.168  -9420.5

   Class     DE/a.u.       DE/eV     DE/cm**-1
   V0_ijab   0.018296      0.498    4015.5  (-42.63%)
   Vm1_iab   0.077232      2.102   16950.5  (-179.93%)
   Vm2_ab    0.005160      0.140    1132.5  (-12.02%)
   V1_ija   -0.022499     -0.612   -4938.1  (52.42%)
   V2_ij     0.000217      0.006      47.5  (-0.50%)
   V0_ia     0.291148      7.923   63899.6  (-678.30%)
   Vm1_a    -0.398964    -10.856  -87562.5  (929.49%)
   V1_i     -0.013512     -0.368   -2965.6  (31.48%)


--------------
TIMINGS NEVPT2
--------------

Sum of individual times        ...       23.4 sec (100.0%)

   Integraltransformation      ...        2.7 sec ( 11.7%)
   Building Fock and alike     ...        5.4 sec ( 22.9%)
   Building D2,D1              ...        0.0 sec (  0.0%)
   Building D3                 ...        0.1 sec (  0.2%)
   Building D4                 ...        0.7 sec (  3.0%)
   All densities               ...        5.5 sec ( 23.5%)
   Hole Densities              ...        0.1 sec (  0.5%)
   Classes Vijab,Viab and Vab  ...        0.2 sec (  1.0%)
   Class Vija                  ...        0.1 sec (  0.3%)
   Class Vij                   ...        0.0 sec (  0.2%)
   Class Via                   ...        0.2 sec (  0.7%)
   Class Va                    ...        0.4 sec (  1.8%)
   Class Vi                    ...        0.7 sec (  2.8%)
   All Classes                 ...        1.6 sec (  6.8%)

-------------------------------------------------------------
 Forming the transition density       ... done in 0.017351 sec
-------------------------------------------------------------



==========================================
CASSCF UV, CD spectra and dipole moments
==========================================
-------------------
ABSORPTION SPECTRUM
-------------------

Center of mass           = ( -0.7478, -0.2792, -0.2791)
Nuclear contribution to the dipole moment =     5.501994,    1.731268,    1.731127 au

Calculating the dipole integrals          ... done

Ground state mult:    2
Ground state block:   2
Ground state root:    0


------------------------------------------------------------------------------------------
                                   ABSORPTION SPECTRUM
------------------------------------------------------------------------------------------
  States           Energy   Wavelength   fosc          T2        TX         TY        TZ  
                   (cm-1)     (nm)                   (D**2)      (D)        (D)       (D) 
------------------------------------------------------------------------------------------
  0( 2)-> 1( 2) 2   93498.0    107.0   0.045494870   1.03327   0.89311   0.34336   0.34312
  0( 2)-> 2( 2) 2  133941.1     74.7   0.000081877   0.00130   0.01175  -0.02210   0.02591
  0( 2)-> 3( 2) 2  164094.3     60.9   0.016925540   0.21903  -0.46223  -0.05208  -0.05160
------------------------------------------------------------------------------------------



------------------------------------------------------------------------------
                             CD SPECTRUM
------------------------------------------------------------------------------
      States        Energy   Wavelength   R*T        RX        RY        RZ   
                    (cm-1)      (nm)   (1e40*sgs)   (au)      (au)      (au)  
------------------------------------------------------------------------------
  0( 2)-> 1( 2) 2   93498.0    107.0    -0.02099  -0.00002   0.02556  -0.02586
  0( 2)-> 2( 2) 2  133941.1     74.7     0.02751  -0.00654   0.04945   0.05087
  0( 2)-> 3( 2) 2  164094.3     60.9    -0.01126  -0.00007   0.03796  -0.03655
------------------------------------------------------------------------------

------------------------------------------------------------------------------
                                 DIPOLE MOMENTS
------------------------------------------------------------------------------
  Root  Block           TX        TY        TZ           |T|
                      (Debye)   (Debye)   (Debye)      (Debye)
------------------------------------------------------------------------------
    0    2            0.23007   0.68328   0.68263      0.99286


=====================================================================
CASSCF (NEVPT2 diagonal energies) UV, CD spectra and dipole moments
=====================================================================
-------------------
ABSORPTION SPECTRUM
-------------------

Center of mass           = ( -0.7478, -0.2792, -0.2791)
Nuclear contribution to the dipole moment =     5.501994,    1.731268,    1.731127 au

Calculating the dipole integrals          ... done

Ground state mult:    2
Ground state block:   2
Ground state root:    1


------------------------------------------------------------------------------------------
                                   ABSORPTION SPECTRUM
------------------------------------------------------------------------------------------
  States           Energy   Wavelength   fosc          T2        TX         TY        TZ  
                   (cm-1)     (nm)                   (D**2)      (D)        (D)       (D) 
------------------------------------------------------------------------------------------
  1( 2)-> 0( 2) 2    7179.7   1392.8   0.003493529   1.03327   0.89311   0.34336   0.34312
  1( 2)-> 3( 2) 2   15230.9    656.6   0.004100715   0.57172  -0.62779   0.30026   0.29571
  1( 2)-> 2( 2) 2   31593.4    316.5   0.000046630   0.00313  -0.00359  -0.04480   0.03338
------------------------------------------------------------------------------------------



------------------------------------------------------------------------------
                             CD SPECTRUM
------------------------------------------------------------------------------
      States        Energy   Wavelength   R*T        RX        RY        RZ   
                    (cm-1)      (nm)   (1e40*sgs)   (au)      (au)      (au)  
------------------------------------------------------------------------------
  1( 2)-> 0( 2) 2    7179.7   1392.8     0.02099   0.00002  -0.02556   0.02586
  1( 2)-> 3( 2) 2   15230.9    656.6     0.57626   0.00763   0.75095  -0.73581
  1( 2)-> 2( 2) 2   31593.4    316.5    -1.13819   0.28321   0.52102   0.54588
------------------------------------------------------------------------------

------------------------------------------------------------------------------
                                 DIPOLE MOMENTS
------------------------------------------------------------------------------
  Root  Block           TX        TY        TZ           |T|
                      (Debye)   (Debye)   (Debye)      (Debye)
------------------------------------------------------------------------------
    1    2            7.43050   3.13285   3.13036      8.65022

-------
TIMINGS
-------

Total time                       ...      131.9 sec
Sum of individual times          ...      130.6 sec ( 99.0%)

Calculation of AO operators
   F(Core) operator              ...       28.1 sec ( 21.3%)
   G(Act) operator               ...       23.9 sec ( 18.2%)
   J(AO) operators               ...        2.4 sec (  1.8%)
Calculation of MO transformed quantities
   J(MO) operators               ...        0.0 sec (  0.0%)
   (pq|rs) integrals             ...        0.0 sec (  0.0%)
   AO->MO one electron integrals ...        0.1 sec (  0.1%)
Configuration interaction steps
   CI-setup phase                ...        0.0 sec (  0.0%)
   CI-solution phase             ...       51.9 sec ( 39.4%)
   Generation of densities       ...        0.1 sec (  0.1%)
Orbital improvement steps
   Orbital gradient              ...        0.1 sec (  0.1%)
   O(1) converger                ...        0.3 sec (  0.2%)
NEVPT2 
   NEVPT2 time                   ...       23.5 sec ( 17.8%)
Properties                       ...        0.0 sec (  0.0%)
           ************************************************************
           *              Shut down parallel processing               *
           ************************************************************

-------------------------   --------------------
FINAL SINGLE POINT ENERGY     -1729.339769041138
-------------------------   --------------------


                            ***************************************
                            *     ORCA property calculations      *
                            ***************************************

                                    ---------------------
                                    Active property flags
                                    ---------------------
   (+) Dipole Moment


------------------------------------------------------------------------------
                       ORCA ELECTRIC PROPERTIES CALCULATION
------------------------------------------------------------------------------

Dipole Moment Calculation                       ... on
Quadrupole Moment Calculation                   ... off
Polarizability Calculation                      ... off
GBWName                                         ... CuII_1aq_141.gbw
Electron density file                           ... CuII_1aq_141.scfp.tmp

-------------
DIPOLE MOMENT
-------------
                                X             Y             Z
Electronic contribution:     -5.41148      -1.46245      -1.46257
Nuclear contribution   :      5.50199       1.73127       1.73113
                        -----------------------------------------
Total Dipole Moment    :      0.09051       0.26882       0.26856
                        -----------------------------------------
Magnitude (a.u.)       :      0.39062
Magnitude (Debye)      :      0.99286


Timings for individual modules:

Sum of individual times         ...      136.334 sec (=   2.272 min)
GTO integral calculation        ...        1.538 sec (=   0.026 min)   1.1 %
Relativistic integrals          ...        0.314 sec (=   0.005 min)   0.2 %
SCF iterations                  ...        1.286 sec (=   0.021 min)   0.9 %
CASSCF iterations               ...      133.196 sec (=   2.220 min)  97.7 %
                             ****ORCA TERMINATED NORMALLY****
TOTAL RUN TIME: 0 days 0 hours 2 minutes 17 seconds 633 msec
