
                                 *****************
                                 * O   R   C   A *
                                 *****************

           --- An Ab Initio, DFT and Semiempirical electronic structure package ---

                  #######################################################
                  #                        -***-                        #
                  #  Department of molecular theory and spectroscopy    #
                  #              Directorship: Frank Neese              #
                  # Max Planck Institute for Chemical Energy Conversion #
                  #                  D-45470 Muelheim/Ruhr              #
                  #                       Germany                       #
                  #                                                     #
                  #                  All rights reserved                #
                  #                        -***-                        #
                  #######################################################


                         Program Version 4.0.0 -  RELEASE  -
                                (SVN: $Rev: 7772$)
                ($Date: 2016-07-26 12:37:07 +0200 (Di, 26 Jul 2016) $)


 With contributions from (in alphabetic order):
   Ute Becker             : Parallelization
   Dmytro Bykov           : SCF Hessian
   Dipayan Datta          : DLPNO lambda equations
   Achintya Kumar Dutta   : EOM-CC, STEOM-CC
   Dmitry Ganyushin       : Spin-Orbit,Spin-Spin,Magnetic field MRCI
   Yang Guo               : DLPNO-NEVPT2, CIM, IAO-localization
   Andreas Hansen         : Spin unrestricted coupled pair/coupled cluster methods
   Lee Huntington         : MR-EOM, pCC
   Robert Izsak           : Overlap fitted RIJCOSX, COSX-SCS-MP3, EOM
   Christian Kollmar      : KDIIS, OOCD, Brueckner-CCSD(T), CCSD density
   Simone Kossmann        : Meta GGA functionals, TD-DFT gradient, OOMP2, MP2 Hessian
   Martin Krupicka        : AUTO-CI
   Dagmar Lenk            : GEPOL surface
   Dimitrios Liakos       : Extrapolation schemes; parallel MDCI
   Dimitrios Manganas     : ROCIS; embedding schemes
   Taras Petrenko         : DFT Hessian,TD-DFT gradient, ASA, ECA, R-Raman, ABS, FL, XAS/XES, NRVS
   Peter Pinski           : DLPNO-MP2
   Christoph Reimann      : Effective Core Potentials
   Christoph Riplinger    : Improved optimizer, TS searches, QM/MM, DLPNO-CCSD
   Tobias Risthaus        : Range-separated hybrids, TD-DFT gradient, RPA, STAB
   Michael Roemelt        : Restricted open shell CIS
   Masaaki Saitow         : Open-shell DLPNO
   Barbara Sandhoefer     : DKH picture change effects
   Igor Schapiro          : Molecular dynamics
   Kantharuban Sivalingam : CASSCF convergence, NEVPT2, FIC-MRCI
   Georgi Stoychev        : AutoAux
   Boris Wezisla          : Elementary symmetry handling
   Frank Wennmohs         : Technical directorship


 We gratefully acknowledge several colleagues who have allowed us to
 interface, adapt or use parts of their codes:
   Stefan Grimme, W. Hujo, H. Kruse,             : VdW corrections, initial TS optimization,
                  C. Bannwarth                     DFT functionals, gCP, sTDA/sTD-DF
   Ed Valeev                                     : LibInt (2-el integral package), F12 methods
   Garnet Chan, S. Sharma, R. Olivares           : DMRG
   Ulf Ekstrom                                   : XCFun DFT Library
   Mihaly Kallay                                 : mrcc  (arbitrary order and MRCC methods)
   Andreas Klamt, Michael Diedenhofen            : otool_cosmo (COSMO solvation model)
   Jiri Pittner, Ondrej Demel                    : Mk-CCSD
   Frank Weinhold                                : gennbo (NPA and NBO analysis)
   Christopher J. Cramer and Donald G. Truhlar   : smd solvation model


 Your calculation uses the libint2 library for the computation of 2-el integrals
 For citations please refer to: http://libint.valeyev.net

 This ORCA versions uses:
   CBLAS   interface :  Fast vector & matrix operations
   LAPACKE interface :  Fast linear algebra routines
   SCALAPACK package :  Parallel linear algebra routines


Your calculation utilizes the basis: Grimme's def2-mSVP for PBEh-3c
Cite in your paper:
S. Grimme, J.G. Brandenburg, C. Bannwarth, A. Hansen J. Chem. Phys. (2015), 143, 054107. 

Your calculation utilizes Weigend Coulomb Fitting basis
Cite in your paper:
        F. Weigend, Phys. Chem. Chem. Phys. 8, 1057 (2006).



*****************************************
The coordinations will be read from file: MeCl2F_107.xyz
*****************************************


Your calculation utilizes the geometrical counterpoise correction gCP
Please cite in your paper:
H.Kruse, S. Grimme J.Chem.Phys., 136, (2012), 154101 
   

Your calculation utilizes the atom-pairwise dispersion correction
with the Becke-Johnson damping scheme (D3BJ)
Cite in your paper:
S.Grimme, S.Ehrlich, L.Goerigk, J Comput Chem, (2011), 32, 1456–1465 
S.Grimme, J.Antony, S.Ehrlich and H.Krieg, J.Chem.Phys., 132, (2010), 154104 
   

================================================================================
                                        BASIS SETS
                                  Additional info on basis sets
================================================================================

Now building the actual basis set ...


================================================================================
                                        WARNINGS
                       Please study these warnings very carefully!
================================================================================


WARNING: Split-RI-J cannot be used together with RIJONX
  ===> : Split-RI-J will be disabled

INFO   : the flag for use of LIBINT has been found!

================================================================================
                                       INPUT FILE
================================================================================
NAME = MeCl2F_116.txt
|  1> #
|  2> # dichlorofluoromethane
|  3> #
|  4> # Run 01 - PWLDA/[def2-TZVP/J] OPT,AFQ from init geom
|  5> # Run 02 - PWLDA/[def2-TZVP/J] NFQ[0.001] from 01xyz
|  6> # Run 03 - PWLDA/[def2-TZVP/J] NFQ[0.0018] from 01xyz
|  7> # Run 04 - PWLDA/[def2-TZVP/J] NFQ[0.003] from 01xyz
|  8> # Run 05 - PWLDA/[def2-TZVP/J] NFQ[0.005] from 01xyz
|  9> # Run 06 - PWLDA/[def2-TZVP/J] NFQ[0.01] from 01xyz
| 10> # Run 07 - PWLDA/[def2-TZVP/J] NFQ[0.018] from 01xyz
| 11> # Run 08 - PWLDA/[def2-TZVP/J] NFQ[0.03] from 01xyz
| 12> # Run 09 - PWLDA/[def2-TZVP/J] NFQ[0.05] from 01xyz
| 13> # Run 10 - PWLDA/[def2-TZVP/J] NFQ[0.1] from 01xyz
| 14> #
| 15> # Run 11 - PBE/[def2-TZVP/J] OPT,AFQ from 01xyz
| 16> # Run 12 - PBE/[def2-TZVP/J] NFQ[0.001] from 11xyz
| 17> # Run 13 - PBE/[def2-TZVP/J] NFQ[0.0018] from 11xyz
| 18> # Run 14 - PBE/[def2-TZVP/J] NFQ[0.003] from 11xyz
| 19> # Run 15 - PBE/[def2-TZVP/J] NFQ[0.005] from 11xyz
| 20> # Run 16 - PBE/[def2-TZVP/J] NFQ[0.01] from 11xyz
| 21> # Run 17 - PBE/[def2-TZVP/J] NFQ[0.018] from 11xyz
| 22> # Run 18 - PBE/[def2-TZVP/J] NFQ[0.03] from 11xyz
| 23> # Run 19 - PBE/[def2-TZVP/J] NFQ[0.05] from 11xyz
| 24> # Run 20 - PBE/[def2-TZVP/J] NFQ[0.1] from 11xyz
| 25> #
| 26> # Run 21 - PBE/[def2-TZVP/J]+D3BJ OPT,AFQ from 11xyz
| 27> # Run 22 - PBE/[def2-TZVP/J]+D3BJ NFQ[0.001] from 21xyz
| 28> # Run 23 - PBE/[def2-TZVP/J]+D3BJ NFQ[0.0018] from 21xyz
| 29> # Run 24 - PBE/[def2-TZVP/J]+D3BJ NFQ[0.003] from 21xyz
| 30> # Run 25 - PBE/[def2-TZVP/J]+D3BJ NFQ[0.005] from 21xyz
| 31> # Run 26 - PBE/[def2-TZVP/J]+D3BJ NFQ[0.01] from 21xyz
| 32> # Run 27 - PBE/[def2-TZVP/J]+D3BJ NFQ[0.018] from 21xyz
| 33> # Run 28 - PBE/[def2-TZVP/J]+D3BJ NFQ[0.03] from 21xyz
| 34> # Run 29 - PBE/[def2-TZVP/J]+D3BJ NFQ[0.05] from 21xyz
| 35> # Run 30 - PBE/[def2-TZVP/J]+D3BJ NFQ[0.1] from 21xyz
| 36> #
| 37> # Run 31 - BLYP/[def2-TZVP/J]+D3BJ OPT,AFQ from 21xyz
| 38> # Run 32 - BLYP/[def2-TZVP/J]+D3BJ NFQ[0.001] from 31xyz
| 39> # Run 33 - BLYP/[def2-TZVP/J]+D3BJ NFQ[0.0018] from 31xyz
| 40> # Run 34 - BLYP/[def2-TZVP/J]+D3BJ NFQ[0.003] from 31xyz
| 41> # Run 35 - BLYP/[def2-TZVP/J]+D3BJ NFQ[0.005] from 31xyz
| 42> # Run 36 - BLYP/[def2-TZVP/J]+D3BJ NFQ[0.01] from 31xyz
| 43> # Run 37 - BLYP/[def2-TZVP/J]+D3BJ NFQ[0.018] from 31xyz
| 44> # Run 38 - BLYP/[def2-TZVP/J]+D3BJ NFQ[0.03] from 31xyz
| 45> # Run 39 - BLYP/[def2-TZVP/J]+D3BJ NFQ[0.05] from 31xyz
| 46> # Run 40 - BLYP/[def2-TZVP/J]+D3BJ NFQ[0.1] from 31xyz
| 47> #
| 48> # Run 41 - PBE0/[def2-TZVP/JCOSX]+D3BJ OPT,AFQ from 31xyz
| 49> # Run 42 - PBE0/[def2-TZVP/JCOSX]+D3BJ NFQ[0.001] from 41xyz
| 50> # Run 43 - PBE0/[def2-TZVP/JCOSX]+D3BJ NFQ[0.0018] from 41xyz
| 51> # Run 44 - PBE0/[def2-TZVP/JCOSX]+D3BJ NFQ[0.003] from 41xyz
| 52> # Run 45 - PBE0/[def2-TZVP/JCOSX]+D3BJ NFQ[0.005] from 41xyz
| 53> # Run 46 - PBE0/[def2-TZVP/JCOSX]+D3BJ NFQ[0.01] from 41xyz
| 54> # Run 47 - PBE0/[def2-TZVP/JCOSX]+D3BJ NFQ[0.018] from 41xyz
| 55> # Run 48 - PBE0/[def2-TZVP/JCOSX]+D3BJ NFQ[0.03] from 41xyz
| 56> # Run 49 - PBE0/[def2-TZVP/JCOSX]+D3BJ NFQ[0.05] from 41xyz
| 57> # Run 50 - PBE0/[def2-TZVP/JCOSX]+D3BJ NFQ[0.1] from 41xyz
| 58> #
| 59> # Run 51 - B3LYP/[def2-TZVP/JCOSX]+D3BJ OPT,AFQ from 41xyz
| 60> # Run 52 - B3LYP/[def2-TZVP/JCOSX]+D3BJ NFQ[0.001] from 51xyz
| 61> # Run 53 - B3LYP/[def2-TZVP/JCOSX]+D3BJ NFQ[0.0018] from 51xyz
| 62> # Run 54 - B3LYP/[def2-TZVP/JCOSX]+D3BJ NFQ[0.003] from 51xyz
| 63> # Run 55 - B3LYP/[def2-TZVP/JCOSX]+D3BJ NFQ[0.005] from 51xyz
| 64> # Run 56 - B3LYP/[def2-TZVP/JCOSX]+D3BJ NFQ[0.01] from 51xyz
| 65> # Run 57 - B3LYP/[def2-TZVP/JCOSX]+D3BJ NFQ[0.018] from 51xyz
| 66> # Run 58 - B3LYP/[def2-TZVP/JCOSX]+D3BJ NFQ[0.03] from 51xyz
| 67> # Run 59 - B3LYP/[def2-TZVP/JCOSX]+D3BJ NFQ[0.05] from 51xyz
| 68> # Run 60 - B3LYP/[def2-TZVP/JCOSX]+D3BJ NFQ[0.1] from 51xyz
| 69> #
| 70> # Run 61 - HF-3c OPT,AFQ from 51xyz
| 71> # Run 62 - HF-3c NFQ[0.001] from 61xyz
| 72> # Run 63 - HF-3c NFQ[0.0018] from 61xyz
| 73> # Run 64 - HF-3c NFQ[0.003] from 61xyz
| 74> # Run 65 - HF-3c NFQ[0.005] from 61xyz
| 75> # Run 66 - HF-3c NFQ[0.01] from 61xyz
| 76> # Run 67 - HF-3c NFQ[0.018] from 61xyz
| 77> # Run 68 - HF-3c NFQ[0.03] from 61xyz
| 78> # Run 69 - HF-3c NFQ[0.05] from 61xyz
| 79> # Run 70 - HF-3c NFQ[0.1] from 61xyz
| 80> #
| 81> # Run 71 - PBE/[def2-TZVP/J]+C(WATER) OPT,NFQ[0.001] from 61xyz
| 82> # Run 72 - PBE/[def2-TZVP/J]+C(WATER) NFQ[0.0018] from 71xyz
| 83> # Run 73 - PBE/[def2-TZVP/J]+C(WATER) NFQ[0.003] from 71xyz
| 84> # Run 74 - PBE/[def2-TZVP/J]+C(WATER) NFQ[0.005] from 71xyz
| 85> # Run 75 - PBE/[def2-TZVP/J]+C(WATER) NFQ[0.01] from 71xyz
| 86> # Run 76 - PBE/[def2-TZVP/J]+C(WATER) NFQ[0.018] from 71xyz
| 87> # Run 77 - PBE/[def2-TZVP/J]+C(WATER) NFQ[0.03] from 71xyz
| 88> # Run 78 - PBE/[def2-TZVP/J]+C(WATER) NFQ[0.05] from 71xyz
| 89> # Run 79 - PBE/[def2-TZVP/J]+C(WATER) NFQ[0.1] from 71xyz
| 90> #
| 91> # Run 80 - TPSS/[def2-TZVP/J]+D3BJ OPT,NFQ[0.001] from 71xyz
| 92> # Run 81 - TPSS/[def2-TZVP/J]+D3BJ NFQ[0.0018] from 80xyz
| 93> # Run 82 - TPSS/[def2-TZVP/J]+D3BJ NFQ[0.003] from 80xyz
| 94> # Run 83 - TPSS/[def2-TZVP/J]+D3BJ NFQ[0.005] from 80xyz
| 95> # Run 84 - TPSS/[def2-TZVP/J]+D3BJ NFQ[0.01] from 80xyz
| 96> # Run 85 - TPSS/[def2-TZVP/J]+D3BJ NFQ[0.018] from 80xyz
| 97> # Run 86 - TPSS/[def2-TZVP/J]+D3BJ NFQ[0.03] from 80xyz
| 98> # Run 87 - TPSS/[def2-TZVP/J]+D3BJ NFQ[0.05] from 80xyz
| 99> # Run 88 - TPSS/[def2-TZVP/J]+D3BJ NFQ[0.1] from 80xyz
|100> #
|101> # Run 89 - TPSS0/[def2-TZVP/JCOSX]+D3BJ OPT,NFQ[0.001] from 80xyz
|102> # Run 90 - TPSS0/[def2-TZVP/JCOSX]+D3BJ NFQ[0.0018] from 89xyz
|103> # Run 91 - TPSS0/[def2-TZVP/JCOSX]+D3BJ NFQ[0.003] from 89xyz
|104> # Run 92 - TPSS0/[def2-TZVP/JCOSX]+D3BJ NFQ[0.005] from 89xyz
|105> # Run 93 - TPSS0/[def2-TZVP/JCOSX]+D3BJ NFQ[0.01] from 89xyz
|106> # Run 94 - TPSS0/[def2-TZVP/JCOSX]+D3BJ NFQ[0.018] from 89xyz
|107> # Run 95 - TPSS0/[def2-TZVP/JCOSX]+D3BJ NFQ[0.03] from 89xyz
|108> # Run 96 - TPSS0/[def2-TZVP/JCOSX]+D3BJ NFQ[0.05] from 89xyz
|109> # Run 97 - TPSS0/[def2-TZVP/JCOSX]+D3BJ NFQ[0.1] from 89xyz
|110> #
|111> # Run 98 - B2PLYP/[def2-TZVP/JCOSX]+D3BJ OPT,NFQ[0.001] from 89xyz
|112> # Run 99 - B2PLYP/[def2-TZVP/JCOSX]+D3BJ NFQ[0.0018] from 98xyz
|113> # Run 100 - B2PLYP/[def2-TZVP/JCOSX]+D3BJ NFQ[0.003] from 98xyz
|114> # Run 101 - B2PLYP/[def2-TZVP/JCOSX]+D3BJ NFQ[0.005] from 98xyz
|115> # Run 102 - B2PLYP/[def2-TZVP/JCOSX]+D3BJ NFQ[0.01] from 98xyz
|116> # Run 103 - B2PLYP/[def2-TZVP/JCOSX]+D3BJ NFQ[0.018] from 98xyz
|117> # Run 104 - B2PLYP/[def2-TZVP/JCOSX]+D3BJ NFQ[0.03] from 98xyz
|118> # Run 105 - B2PLYP/[def2-TZVP/JCOSX]+D3BJ NFQ[0.05] from 98xyz
|119> # Run 106 - B2PLYP/[def2-TZVP/JCOSX]+D3BJ NFQ[0.1] from 98xyz
|120> #
|121> # Run 107 - RI-MP2/[def2-TZVP/JCOSX] OPT,NFQ[0.001] from 98xyz
|122> # Run 108 - RI-MP2/[def2-TZVP/JCOSX] NFQ[0.0018] from 107xyz
|123> # Run 109 - RI-MP2/[def2-TZVP/JCOSX] NFQ[0.003] from 107xyz
|124> # Run 110 - RI-MP2/[def2-TZVP/JCOSX] NFQ[0.005] from 107xyz
|125> # Run 111 - RI-MP2/[def2-TZVP/JCOSX] NFQ[0.01] from 107xyz
|126> # Run 112 - RI-MP2/[def2-TZVP/JCOSX] NFQ[0.018] from 107xyz
|127> # Run 113 - RI-MP2/[def2-TZVP/JCOSX] NFQ[0.03] from 107xyz
|128> # Run 114 - RI-MP2/[def2-TZVP/JCOSX] NFQ[0.05] from 107xyz
|129> # Run 115 - RI-MP2/[def2-TZVP/JCOSX] NFQ[0.1] from 107xyz
|130> #
|131> # Run 116 - PBEh-3c (4.0b) OPT,AFQ from 107xyz
|132> #
|133> 
|134> 
|135> ! RKS PBEH-3C
|136> 
|137> ! TIGHTOPT
|138> ! GRID4 GRIDX6
|139> ! PRINTBASIS
|140> ! PAL8
|141> 
|142> ! ANFREQ
|143> 
|144> ! VERYTIGHTSCF
|145> 
|146> %scf Thresh 0 TCut 0 end
|147> 
|148> %geom
|149>   TolMaxG 5e-7
|150>   TolRMSG 3e-7
|151>   MaxIter 550
|152>   Trust 0.3
|153>   end
|154> 
|155> %scf  MaxIter 800  end
|156> 
|157> %output  PrintLevel Small  end
|158> 
|159> ! NOAUTOSTART
|160> 
|161> * xyzfile 0 1 MeCl2F_107.xyz
|162> 
|163> 
|164>                          ****END OF INPUT****
================================================================================

                       *****************************
                       * Geometry Optimization Run *
                       *****************************

Geometry optimization settings:
Update method            Update   .... BFGS
Choice of coordinates    CoordSys .... Redundant Internals
Initial Hessian          InHess   .... Almoef's Model

Convergence Tolerances:
Energy Change            TolE     ....  1.0000e-06 Eh
Max. Gradient            TolMAXG  ....  5.0000e-07 Eh/bohr
RMS Gradient             TolRMSG  ....  3.0000e-07 Eh/bohr
Max. Displacement        TolMAXD  ....  1.0000e-03 bohr
RMS Displacement         TolRMSD  ....  6.0000e-04 bohr

------------------------------------------------------------------------------
                        ORCA OPTIMIZATION COORDINATE SETUP
------------------------------------------------------------------------------

The optimization will be done in new redundant internal coordinates
Making redundant internal coordinates   ...  (new redundants) done
Evaluating the initial hessian          ...  (Almloef) done
Evaluating the coordinates              ...  done
Calculating the B-matrix                .... done
Calculating the G-matrix                .... done
Diagonalizing the G-matrix              .... done
The first mode is                       ....    1
The number of degrees of freedom        ....    9

    -----------------------------------------------------------------
                    Redundant Internal Coordinates


    -----------------------------------------------------------------
         Definition                    Initial Value    Approx d2E/dq
    -----------------------------------------------------------------
      1. B(Cl  1,C   0)                  1.7584         0.362197   
      2. B(Cl  2,C   0)                  1.7582         0.362522   
      3. B(F   3,C   0)                  1.3488         0.604957   
      4. B(H   4,C   0)                  1.0867         0.364515   
      5. A(Cl  1,C   0,F   3)          109.3583         0.405947   
      6. A(Cl  2,C   0,F   3)          109.3188         0.406011   
      7. A(Cl  1,C   0,H   4)          108.6315         0.336840   
      8. A(Cl  2,C   0,H   4)          108.6662         0.336890   
      9. A(F   3,C   0,H   4)          109.3550         0.348548   
     10. A(Cl  1,C   0,Cl  2)          111.4804         0.391711   
    -----------------------------------------------------------------

Number of atoms                         .... 5
Number of degrees of freedom            .... 10

         *************************************************************
         *                GEOMETRY OPTIMIZATION CYCLE   1            *
         *************************************************************
---------------------------------
CARTESIAN COORDINATES (ANGSTROEM)
---------------------------------
  C     -3.080160    2.283279    0.041610
  Cl    -1.322013    2.260281    0.062295
  Cl    -3.695215    3.402395   -1.166887
  F     -3.536899    2.644891    1.258098
  H     -3.437663    1.284764   -0.195116

----------------------------
CARTESIAN COORDINATES (A.U.)
----------------------------
  NO LB      ZA    FRAG      MASS         X                   Y                   Z
   0 C     6.0000    0    12.011         -5.820658599849207          4.314771515726993          0.078631059068895
   1 Cl   17.0000    0    35.453         -2.498241603839327          4.271313016406700          0.117720509876275
   2 Cl   17.0000    0    35.453         -6.982945178831732          6.429595076854635         -2.205097000020966
   3 F     9.0000    0    18.998         -6.683770529362649          4.998119548441311          2.377460716005217
   4 H     1.0000    0     1.008         -6.496241892271477          2.427851415826859         -0.368715284929440
* core charge reduced due to ECP

--------------------------------
INTERNAL COORDINATES (ANGSTROEM)
--------------------------------
 C      0   0   0     0.000000000000     0.00000000     0.00000000
 Cl     1   0   0     1.758419420895     0.00000000     0.00000000
 Cl     1   2   0     1.758175059482   111.48036979     0.00000000
 F      1   2   3     1.348783798456   109.35830232   238.99733336
 H      1   2   3     1.086683017001   108.63149510   119.71184798

---------------------------
INTERNAL COORDINATES (A.U.)
---------------------------
 C      0   0   0     0.000000000000     0.00000000     0.00000000
 Cl     1   0   0     3.322931134060     0.00000000     0.00000000
 Cl     1   2   0     3.322469357911   111.48036979     0.00000000
 F      1   2   3     2.548831992951   109.35830232   238.99733336
 H      1   2   3     2.053533296515   108.63149510   119.71184798

---------------------
BASIS SET INFORMATION
---------------------
There are 4 groups of distinct atoms

 Group   1 Type C   : 8s4p1d contracted to 4s2p1d pattern {5111/31/1}
 Group   2 Type Cl  : 10s7p1d contracted to 4s3p1d pattern {5311/511/1}
 Group   3 Type F   : 8s4p1d contracted to 4s2p1d pattern {5111/31/1}
 Group   4 Type H   : 4s contracted to 2s pattern {31}

Atom   0C    basis set group =>   1
Atom   1Cl   basis set group =>   2
Atom   2Cl   basis set group =>   2
Atom   3F    basis set group =>   3
Atom   4H    basis set group =>   4
-------------------------------
AUXILIARY BASIS SET INFORMATION
-------------------------------
There are 4 groups of distinct atoms

 Group   1 Type C   : 12s5p4d2f1g contracted to 6s4p3d1f1g pattern {711111/2111/211/2/1}
 Group   2 Type Cl  : 14s5p5d2f1g contracted to 8s4p3d1f1g pattern {71111111/2111/311/2/1}
 Group   3 Type F   : 12s5p4d2f1g contracted to 6s4p3d1f1g pattern {711111/2111/211/2/1}
 Group   4 Type H   : 5s2p1d contracted to 3s1p1d pattern {311/2/1}

Atom   0C    basis set group =>   1
Atom   1Cl   basis set group =>   2
Atom   2Cl   basis set group =>   2
Atom   3F    basis set group =>   3
Atom   4H    basis set group =>   4
-------------------------
ECP PARAMETER INFORMATION
-------------------------





           ************************************************************
           *        Program running with 8 parallel MPI-processes     *
           *              working on a common directory               *
           ************************************************************
------------------------------------------------------------------------------
                           ORCA GTO INTEGRAL CALCULATION
                           -- RI-GTO INTEGRALS CHOSEN --
------------------------------------------------------------------------------

                         BASIS SET STATISTICS AND STARTUP INFO

Gaussian basis set:
 # of primitive gaussian shells          ...   66
 # of primitive gaussian functions       ...  126
 # of contracted shells                  ...   32
 # of contracted basis functions         ...   68
 Highest angular momentum                ...    2
 Maximum contraction depth               ...    5
Auxiliary gaussian basis set:
 # of primitive gaussian shells          ...  110
 # of primitive gaussian functions       ...  310
 # of contracted shells                  ...   69
 # of contracted aux-basis functions     ...  211
 Highest angular momentum                ...    4
 Maximum contraction depth               ...    7
Ratio of auxiliary to basis functions    ...  3.10
Integral package used                  ... LIBINT
 One Electron integrals                  
   ECP integrals                         ... done
 Ordering auxiliary basis shells         ... done
 Integral threshhold             Thresh  ...  0.000e+00
 Primitive cut-off               TCut    ...  0.000e+00
 Pre-screening matrix                    ... done
 Shell pair data                         ... 
 Ordering of the shell pairs             ... done (   0.000 sec) 497 of 528 pairs
 Determination of significant pairs      ... done (   0.000 sec)
 Creation of shell pair data             ... done (   0.000 sec)
 Storage of shell pair data              ... done (   0.000 sec)
 Shell pair data done in (   0.001 sec)
 Computing two index integrals           ... done
 Cholesky decomposition of the V-matrix  ... done


Timings:
 Total evaluation time                   ...   0.504 sec (  0.008 min)
 One electron matrix time                ...   0.021 sec (  0.000 min) =  4.3%
 Schwartz matrix evaluation time         ...   0.424 sec (  0.007 min) = 84.1%
 Two index repulsion integral time       ...   0.024 sec (  0.000 min) =  4.8%
 Cholesky decomposition of V             ...   0.002 sec (  0.000 min) =  0.4%
 Three index repulsion integral time     ...   0.000 sec (  0.000 min) =  0.0%



           ************************************************************
           *        Program running with 8 parallel MPI-processes     *
           *              working on a common directory               *
           ************************************************************
-------------------------------------------------------------------------------
                                 ORCA SCF
-------------------------------------------------------------------------------

------------
SCF SETTINGS
------------
Hamiltonian:
 Density Functional     Method          .... DFT(GTOs)
 Exchange Functional    Exchange        .... PBE
   PBE kappa parameter   XKappa         ....  1.024500
   PBE mue parameter    XMuePBE         ....  0.123457
 Correlation Functional Correlation     .... PBE
   PBE beta parameter  CBetaPBE         ....  0.030000
 LDA part of GGA corr.  LDAOpt          .... PW91-LDA
 Gradients option       PostSCFGGA      .... off
 Hybrid DFT is turned on
   Fraction HF Exchange ScalHFX         ....  0.420000
   Scaling of DF-GGA-X  ScalDFX         ....  0.580000
   Scaling of DF-GGA-C  ScalDFC         ....  1.000000
   Scaling of DF-LDA-C  ScalLDAC        ....  1.000000
   Perturbative correction              ....  0.000000
 RI-approximation to the Coulomb term is turned on
   Number of auxiliary basis functions  .... 211
   RIJ-ON(X) (HFX calculated with O(N)) .... on


General Settings:
 Integral files         IntName         .... MeCl2F_116
 Hartree-Fock type      HFTyp           .... RHF
 Total Charge           Charge          ....    0
 Multiplicity           Mult            ....    1
 Number of Electrons    NEL             ....   50
 Basis Dimension        Dim             ....   68
 Nuclear Repulsion      ENuc            ....    211.7916689966 Eh

Convergence Acceleration:
 DIIS                   CNVDIIS         .... on
   Start iteration      DIISMaxIt       ....    12
   Startup error        DIISStart       ....  0.200000
   # of expansion vecs  DIISMaxEq       ....     5
   Bias factor          DIISBfac        ....   1.050
   Max. coefficient     DIISMaxC        ....  10.000
 Newton-Raphson         CNVNR           .... off
 SOSCF                  CNVSOSCF        .... on
   Start iteration      SOSCFMaxIt      ....   150
   Startup grad/error   SOSCFStart      ....  0.003300
 Level Shifting         CNVShift        .... on
   Level shift para.    LevelShift      ....    0.2500
   Turn off err/grad.   ShiftErr        ....    0.0010
 Zerner damping         CNVZerner       .... off
 Static damping         CNVDamp         .... on
   Fraction old density DampFac         ....    0.7000
   Max. Damping (<1)    DampMax         ....    0.9800
   Min. Damping (>=0)   DampMin         ....    0.0000
   Turn off err/grad.   DampErr         ....    0.1000
 Fernandez-Rico         CNVRico         .... off

SCF Procedure:
 Maximum # iterations   MaxIter         ....   800
 SCF integral mode      SCFMode         .... Direct
   Integral package                     .... LIBINT
 Reset frequeny         DirectResetFreq ....    20
 Integral Threshold     Thresh          ....  0.000e+00 Eh
 Primitive CutOff       TCut            ....  0.000e+00 Eh

Convergence Tolerance:
 Convergence Check Mode ConvCheckMode   .... Total+1el-Energy
 Convergence forced     ConvForced      .... 0
 Energy Change          TolE            ....  1.000e-08 Eh
 1-El. energy change                    ....  1.000e-05 Eh
 Orbital Gradient       TolG            ....  1.000e-05
 Orbital Rotation angle TolX            ....  1.000e-05
 DIIS Error             TolErr          ....  5.000e-07


Diagonalization of the overlap matrix:
Smallest eigenvalue                        ... 1.234e-02
Time for diagonalization                   ...    0.002 sec
Threshold for overlap eigenvalues          ... 1.000e-08
Number of eigenvalues below threshold      ... 0
Time for construction of square roots      ...    0.001 sec
Total time needed                          ...    0.003 sec

--------------------------------
INITIAL GUESS: MINIMAL BASIS EHT
--------------------------------
The minimal basis has 29 functions
EHT matrix was diagonalized
Basis set overlap was calculated now projecting the orbitals
Using GuessMode=FMatrix for the initial guess
C*T matrix was formed
Effective Fockian was calculated
Effective Fockian was diagonalized
Initial density was built
                      ------------------
                      INITIAL GUESS DONE
                      ------------------
-------------------
DFT GRID GENERATION
-------------------

General Integration Accuracy     IntAcc      ...  4.670
Radial Grid Type                 RadialGrid  ... Gauss-Chebyshev
Angular Grid (max. acc.)         AngularGrid ... Lebedev-302
Angular grid pruning method      GridPruning ... 3 (G Style)
Weight generation scheme         WeightScheme... Becke
Basis function cutoff            BFCut       ...    1.0000e-11
Integration weight cutoff        WCut        ...    1.0000e-14
Grids for H and He will be reduced by one unit

# of grid points (after initial pruning)     ...  29354 (   0.0 sec)
# of grid points (after weights+screening)   ...  28668 (   0.0 sec)
nearest neighbour list constructed           ...    0.0 sec
Grid point re-assignment to atoms done       ...    0.0 sec
Grid point division into batches done        ...    0.2 sec
Reduced shell lists constructed in    0.2 sec

Total number of grid points                  ...    28668
Total number of batches                      ...      450
Average number of points per batch           ...       63
Average number of grid points per atom       ...     5734
Average number of shells per batch           ...    23.81 (74.41%)
Average number of basis functions per batch  ...    54.40 (79.99%)
Average number of large shells per batch     ...    21.79 (91.53%)
Average number of large basis fcns per batch ...    50.66 (93.12%)
Maximum spatial batch extension              ...  15.80, 16.64, 15.06 au
Average spatial batch extension              ...   0.30,  0.31,  0.30 au

Time for grid setup =    0.289 sec

--------------
SCF ITERATIONS
--------------
ITER       Energy         Delta-E        Max-DP      RMS-DP      [F,P]     Damp
               ***  Starting incremental Fock matrix formation  ***
  0  -1055.3926400108   0.000000000000 0.18402420  0.00969259  2.1191615 0.7000
  1  -1056.1354555905  -0.742815579727 0.11071647  0.00596512  1.5008083 0.7000
  2  -1056.5934662970  -0.458010706510 0.08836688  0.00370296  1.0567646 0.7000
  3  -1056.9131410143  -0.319674717281 0.06913642  0.00258634  0.7442066 0.7000
  4  -1057.1393643582  -0.226223343912 0.05316510  0.00189238  0.5239149 0.7000
                      *** Initiating the SOSCF procedure ***
                      *** Re-Reading the Fockian *** 
                      *** Removing any level shift *** 
ITER      Energy       Delta-E        Grad      Rot      Max-DP    RMS-DP
  5  -1057.29862956  -0.1592652063  0.002482  0.002482  0.134682  0.004650
               *** Restarting incremental Fock matrix formation ***
  6  -1057.67296139  -0.3743318298  0.005628  0.005592  0.024648  0.000846
  7  -1057.67327954  -0.0003181422  0.002863  0.003133  0.006549  0.000300
  8  -1057.67333358  -0.0000540421  0.001505  0.000885  0.005370  0.000175
  9  -1057.67335647  -0.0000228958  0.000140  0.000131  0.000376  0.000027
 10  -1057.67335687  -0.0000003999  0.000043  0.000026  0.000087  0.000006
 11  -1057.67335692  -0.0000000415  0.000005  0.000010  0.000009  0.000001
                  ***Gradient check signals convergence***
              ***Rediagonalizing the Fockian in SOSCF/NRSCF***

               *****************************************************
               *                     SUCCESS                       *
               *           SCF CONVERGED AFTER  12 CYCLES          *
               *****************************************************


----------------
TOTAL SCF ENERGY
----------------

Total Energy       :        -1057.67335692 Eh          -28780.75523 eV

Components:
Nuclear Repulsion  :          211.79166900 Eh            5763.14431 eV
Electronic Energy  :        -1269.46502591 Eh          -34543.89953 eV
One Electron Energy:        -1882.91340817 Eh          -51236.67866 eV
Two Electron Energy:          613.44838225 Eh           16692.77913 eV

Virial components:
Potential Energy   :        -2113.52158781 Eh          -57511.84625 eV
Kinetic Energy     :         1055.84823089 Eh           28731.09102 eV
Virial Ratio       :            2.00172859


DFT components:
N(Alpha)           :       25.000015822029 electrons
N(Beta)            :       25.000015822029 electrons
N(Total)           :       50.000031644058 electrons
E(X)               :      -39.621273199148 Eh       
E(C)               :       -2.505141434046 Eh       
E(XC)              :      -42.126414633194 Eh       

---------------
SCF CONVERGENCE
---------------

  Last Energy change         ...   -4.1837e-10  Tolerance :   1.0000e-08
  Last MAX-Density change    ...    4.3428e-06  Tolerance :   1.0000e-07
  Last RMS-Density change    ...    2.9710e-07  Tolerance :   5.0000e-09
  Last Orbital Gradient      ...    2.1184e-06  Tolerance :   1.0000e-05
  Last Orbital Rotation      ...    3.2087e-06  Tolerance :   1.0000e-05

             **** THE GBW FILE WAS UPDATED (MeCl2F_116.gbw) ****
             **** DENSITY FILE WAS UPDATED (MeCl2F_116.scfp.tmp) ****
             **** ENERGY FILE WAS UPDATED (MeCl2F_116.en.tmp) ****
----------------
ORBITAL ENERGIES
----------------

  NO   OCC          E(Eh)            E(eV) 
   0   2.0000    -102.323216     -2784.3563 
   1   2.0000    -102.323143     -2784.3543 
   2   2.0000     -25.136441      -683.9973 
   3   2.0000     -10.653654      -289.9007 
   4   2.0000      -9.792193      -266.4591 
   5   2.0000      -9.792154      -266.4580 
   6   2.0000      -7.479918      -203.5389 
   7   2.0000      -7.479890      -203.5381 
   8   2.0000      -7.471210      -203.3019 
   9   2.0000      -7.471199      -203.3017 
  10   2.0000      -7.471033      -203.2971 
  11   2.0000      -7.471020      -203.2968 
  12   2.0000      -1.384661       -37.6785 
  13   2.0000      -1.011440       -27.5227 
  14   2.0000      -0.936098       -25.4725 
  15   2.0000      -0.756291       -20.5797 
  16   2.0000      -0.638367       -17.3709 
  17   2.0000      -0.595393       -16.2015 
  18   2.0000      -0.591728       -16.1017 
  19   2.0000      -0.479568       -13.0497 
  20   2.0000      -0.468723       -12.7546 
  21   2.0000      -0.409943       -11.1551 
  22   2.0000      -0.388140       -10.5618 
  23   2.0000      -0.383840       -10.4448 
  24   2.0000      -0.370794       -10.0898 
  25   0.0000       0.033151         0.9021 
  26   0.0000       0.084054         2.2872 
  27   0.0000       0.137587         3.7439 
  28   0.0000       0.163442         4.4475 
  29   0.0000       0.419577        11.4173 
  30   0.0000       0.453026        12.3275 
  31   0.0000       0.465302        12.6615 
  32   0.0000       0.502211        13.6658 
  33   0.0000       0.579930        15.7807 
  34   0.0000       0.710757        19.3407 
  35   0.0000       0.759756        20.6740 
  36   0.0000       0.785256        21.3679 
  37   0.0000       0.792313        21.5599 
  38   0.0000       0.801095        21.7989 
  39   0.0000       0.807948        21.9854 
  40   0.0000       0.817829        22.2543 
  41   0.0000       0.823530        22.4094 
  42   0.0000       0.832099        22.6426 
  43   0.0000       0.859626        23.3916 
  44   0.0000       0.895567        24.3696 
  45   0.0000       0.908966        24.7342 
  46   0.0000       0.924048        25.1446 
  47   0.0000       0.970805        26.4170 
  48   0.0000       1.070825        29.1386 
  49   0.0000       1.097770        29.8718 
  50   0.0000       1.180338        32.1186 
  51   0.0000       1.202842        32.7310 
  52   0.0000       1.235030        33.6069 
  53   0.0000       1.248106        33.9627 
  54   0.0000       1.268349        34.5135 
  55   0.0000       1.393878        37.9294 
  56   0.0000       1.402586        38.1663 
  57   0.0000       1.453337        39.5473 
  58   0.0000       1.553631        42.2765 
  59   0.0000       1.853327        50.4316 
  60   0.0000       2.055241        55.9260 
  61   0.0000       2.092805        56.9481 
  62   0.0000       2.138063        58.1797 
  63   0.0000       2.294138        62.4267 
  64   0.0000       2.316675        63.0399 
  65   0.0000       2.942459        80.0684 
  66   0.0000      13.684905       372.3852 
  67   0.0000      32.756781       891.3573 

                    ********************************
                    * MULLIKEN POPULATION ANALYSIS *
                    ********************************

-----------------------
MULLIKEN ATOMIC CHARGES
-----------------------
   0 C :    0.129402
   1 Cl:   -0.059298
   2 Cl:   -0.059164
   3 F :   -0.284313
   4 H :    0.273373
Sum of atomic charges:    0.0000000

--------------------------------
MULLIKEN REDUCED ORBITAL CHARGES
--------------------------------
  0 C s       :     3.226544  s :     3.226544
      pz      :     0.707163  p :     2.537291
      px      :     0.803070
      py      :     1.027058
      dz2     :     0.028327  d :     0.106764
      dxz     :     0.022196
      dyz     :     0.022392
      dx2y2   :     0.020979
      dxy     :     0.012869
  1 Cls       :     5.941895  s :     5.941895
      pz      :     3.935532  p :    11.082177
      px      :     3.201162
      py      :     3.945484
      dz2     :     0.006372  d :     0.035227
      dxz     :     0.004743
      dyz     :     0.000267
      dx2y2   :     0.018267
      dxy     :     0.005579
  2 Cls       :     5.941876  s :     5.941876
      pz      :     3.601667  p :    11.082039
      px      :     3.840089
      py      :     3.640283
      dz2     :     0.004847  d :     0.035248
      dxz     :     0.006304
      dyz     :     0.014437
      dx2y2   :     0.004447
      dxy     :     0.005213
  3 F s       :     3.912820  s :     3.912820
      pz      :     1.569485  p :     5.343966
      px      :     1.873652
      py      :     1.900829
      dz2     :     0.009998  d :     0.027527
      dxz     :     0.007365
      dyz     :     0.006750
      dx2y2   :     0.001941
      dxy     :     0.001473
  4 H s       :     0.726627  s :     0.726627


                     *******************************
                     * LOEWDIN POPULATION ANALYSIS *
                     *******************************

----------------------
LOEWDIN ATOMIC CHARGES
----------------------
   0 C :   -0.066162
   1 Cl:    0.061004
   2 Cl:    0.061202
   3 F :   -0.186241
   4 H :    0.130197

-------------------------------
LOEWDIN REDUCED ORBITAL CHARGES
-------------------------------
  0 C s       :     2.969286  s :     2.969286
      pz      :     0.861625  p :     2.869940
      px      :     0.940456
      py      :     1.067860
      dz2     :     0.062537  d :     0.226936
      dxz     :     0.047116
      dyz     :     0.049360
      dx2y2   :     0.043674
      dxy     :     0.024248
  1 Cls       :     5.799577  s :     5.799577
      pz      :     3.912755  p :    11.098627
      px      :     3.253428
      py      :     3.932445
      dz2     :     0.007621  d :     0.040793
      dxz     :     0.004761
      dyz     :     0.000310
      dx2y2   :     0.022169
      dxy     :     0.005931
  2 Cls       :     5.799482  s :     5.799482
      pz      :     3.604350  p :    11.098498
      px      :     3.835157
      py      :     3.658990
      dz2     :     0.004823  d :     0.040819
      dxz     :     0.007392
      dyz     :     0.017275
      dx2y2   :     0.004996
      dxy     :     0.006333
  3 F s       :     3.727259  s :     3.727259
      pz      :     1.604366  p :     5.372633
      px      :     1.869718
      py      :     1.898549
      dz2     :     0.028484  d :     0.086348
      dxz     :     0.021522
      dyz     :     0.024334
      dx2y2   :     0.007839
      dxy     :     0.004169
  4 H s       :     0.869803  s :     0.869803


                      *****************************
                      * MAYER POPULATION ANALYSIS *
                      *****************************

  NA   - Mulliken gross atomic population
  ZA   - Total nuclear charge
  QA   - Mulliken gross atomic charge
  VA   - Mayer's total valence
  BVA  - Mayer's bonded valence
  FA   - Mayer's free valence

  ATOM       NA         ZA         QA         VA         BVA        FA
  0 C      5.8706     6.0000     0.1294     3.9346     3.9346    -0.0000
  1 Cl    17.0593    17.0000    -0.0593     1.1200     1.1200     0.0000
  2 Cl    17.0592    17.0000    -0.0592     1.1200     1.1200     0.0000
  3 F      9.2843     9.0000    -0.2843     1.0677     1.0677    -0.0000
  4 H      0.7266     1.0000     0.2734     0.8560     0.8560    -0.0000

  Mayer bond orders larger than 0.1
B(  0-C ,  1-Cl) :   1.0477 B(  0-C ,  2-Cl) :   1.0478 B(  0-C ,  3-F ) :   0.9945 
B(  0-C ,  4-H ) :   0.8446 

-------
TIMINGS
-------

Total SCF time: 0 days 0 hours 0 min 9 sec 

Total time                  ....       9.713 sec
Sum of individual times     ....       9.644 sec  ( 99.3%)

Fock matrix formation       ....       9.224 sec  ( 95.0%)
  XC integration            ....       0.561 sec  (  6.1% of F)
    Basis function eval.    ....       0.150 sec  ( 26.7% of XC)
    Density eval.           ....       0.102 sec  ( 18.3% of XC)
    XC-Functional eval.     ....       0.063 sec  ( 11.1% of XC)
    XC-Potential eval.      ....       0.144 sec  ( 25.7% of XC)
Diagonalization             ....       0.014 sec  (  0.1%)
Density matrix formation    ....       0.071 sec  (  0.7%)
Population analysis         ....       0.003 sec  (  0.0%)
Initial guess               ....       0.008 sec  (  0.1%)
Orbital Transformation      ....       0.000 sec  (  0.0%)
Orbital Orthonormalization  ....       0.000 sec  (  0.0%)
DIIS solution               ....       0.002 sec  (  0.0%)
SOSCF solution              ....       0.034 sec  (  0.3%)
Grid generation             ....       0.289 sec  (  3.0%)


-------------------------------------------------------------------------------
                          DFT DISPERSION CORRECTION                            
                                                                               
                              DFTD3 V3.1  Rev 1                                
                          USING Becke-Johnson damping                          
-------------------------------------------------------------------------------
The PBEh-3c composite method is recognized
Using three-body term ABC
Active option DFTDOPT                   ...         4   

molecular C6(AA) [au] = 759.576950 


            DFT-D V3
 parameters
 s6 scaling factor         :     1.0000 
 a1 scaling factor         :     0.4860 
 s8 scaling factor         :     0.0000 
 a2 scaling factor         :     4.5000 
 Damping factor alpha9(ATM):    16.0000 
 ad hoc parameters k1-k3   :    16.0000     1.3333    -4.0000 

 Edisp/kcal,au: -1.156208366294  -0.001842535118 
 E6   /kcal   :  -1.156442565 
 E8   /kcal   :  -0.000000000 
 E6(ABC)      :   0.000234198 
 % E8         :   0.000000000 
 % E6(ABC)    :  -0.020255713 

-------------------------   ----------------
Dispersion correction           -0.001842535
-------------------------   ----------------

Egcp:       0.0125940380 a.u.
------------------   -----------------
gCP correction             0.012594038
------------------   -----------------

-------------------------   --------------------
FINAL SINGLE POINT ENERGY     -1057.662605413450
-------------------------   --------------------



           ************************************************************
           *        Program running with 8 parallel MPI-processes     *
           *              working on a common directory               *
           ************************************************************
------------------------------------------------------------------------------
                         ORCA SCF GRADIENT CALCULATION
------------------------------------------------------------------------------

Gradient of the Kohn-Sham DFT energy:
Kohn-Sham wavefunction type      ... RKS
Hartree-Fock exchange scaling    ...    0.420
Number of operators              ...    1
Number of atoms                  ...    5
Basis set dimensions             ...   68
Integral neglect threshold       ... 0.0e+00
Integral primitive cutoff        ... 0.0e+00

Nuclear repulsion gradient       ... done
One Electron Gradient            
  ECP gradient                   ... done
Pre-screening matrix             ... done
Starting the two electron gradient:
Will do only exchange terms
Two electron gradient done
RI-J gradient                    ... done
Exchange-correlation gradient    ... done
Dispersion correction            ... done
gCP correction                   ... done

------------------
CARTESIAN GRADIENT
------------------

   1   C   :    0.002136332   -0.000408959   -0.004501450
   2   Cl  :    0.001399183   -0.000779255   -0.000300879
   3   Cl  :   -0.000723793    0.000222670   -0.001308291
   4   F   :   -0.002868019    0.000760104    0.005992722
   5   H   :    0.000056297    0.000205441    0.000117899

Difference to translation invariance:
           :    0.0000000000    0.0000000000   -0.0000000000

Norm of the cartesian gradient     ...    0.0086434980
RMS gradient                       ...    0.0022317416
MAX gradient                       ...    0.0059927216

-------
TIMINGS
-------

Total SCF gradient time            ...        1.823 sec

One electron gradient       ....       0.005 sec  (  0.3%)
Prescreening matrices       ....       0.025 sec  (  1.4%)
Two electron gradient       ....       0.420 sec  ( 23.0%)
RI-J Coulomb gradient       ....       0.291 sec  ( 16.0%)
XC gradient                 ....       0.311 sec  ( 17.1%)
------------------------------------------------------------------------------
                         ORCA GEOMETRY RELAXATION STEP
------------------------------------------------------------------------------

Reading the OPT-File                    .... done
Getting information on internals        .... done
Copying old internal coords+grads       .... done
Making the new internal coordinates     .... (new redundants).... done
Validating the new internal coordinates .... (new redundants).... done
Calculating the B-matrix                .... done
Calculating the G,G- and P matrices     .... done
Transforming gradient to internals      .... done
Projecting the internal gradient        .... done
Number of atoms                         ....   5
Number of internal coordinates          ....  10
Current Energy                          .... -1057.662605413 Eh
Current gradient norm                   ....     0.008643498 Eh/bohr
Maximum allowed component of the step   ....  0.300
Current trust radius                    ....  0.300
Evaluating the initial hessian          ....  (Almloef) done
Projecting the Hessian                  .... done
Forming the augmented Hessian           .... done
Diagonalizing the augmented Hessian     .... done
Last element of RFO vector              ....  0.999883450
Lowest eigenvalues of augmented Hessian:
 -0.000114012  0.336864765  0.344173534  0.362202344  0.362526946
Length of the computed step             ....  0.015268927
The final length of the internal step   ....  0.015268927
Converting the step to cartesian space:
 Initial RMS(Int)=    0.0048284586
Transforming coordinates:
 Iter   0:  RMS(Cart)=    0.0052091843 RMS(Int)=    0.0048271925
 Iter   1:  RMS(Cart)=    0.0000168486 RMS(Int)=    0.0000190643
 Iter   2:  RMS(Cart)=    0.0000001014 RMS(Int)=    0.0000001344
 Iter   3:  RMS(Cart)=    0.0000000004 RMS(Int)=    0.0000000006
done
Storing new coordinates                 .... done

                                .--------------------.
          ----------------------|Geometry convergence|-------------------------
          Item                value                   Tolerance       Converged
          ---------------------------------------------------------------------
          RMS gradient        0.0024289062            0.0000003000      NO
          MAX gradient        0.0065808923            0.0000005000      NO
          RMS step            0.0048284586            0.0006000000      NO
          MAX step            0.0108762300            0.0010000000      NO
          ........................................................
          Max(Bonds)      0.0058      Max(Angles)    0.25
          Max(Dihed)        0.00      Max(Improp)    0.00
          ---------------------------------------------------------------------

The optimization has not yet converged - more geometry cycles are needed


    ---------------------------------------------------------------------------
                         Redundant Internal Coordinates
                            (Angstroem and degrees)

        Definition                    Value    dE/dq     Step     New-Value
    ----------------------------------------------------------------------------
     1. B(Cl  1,C   0)                1.7584  0.001406 -0.0021    1.7564   
     2. B(Cl  2,C   0)                1.7582  0.001293 -0.0019    1.7563   
     3. B(F   3,C   0)                1.3488  0.006581 -0.0058    1.3430   
     4. B(H   4,C   0)                1.0867 -0.000234  0.0003    1.0870   
     5. A(Cl  1,C   0,F   3)          109.36  0.001671   -0.25    109.11   
     6. A(Cl  2,C   0,F   3)          109.32  0.001420   -0.22    109.10   
     7. A(Cl  1,C   0,H   4)          108.63 -0.001389    0.22    108.85   
     8. A(Cl  2,C   0,H   4)          108.67 -0.001357    0.21    108.88   
     9. A(F   3,C   0,H   4)          109.36 -0.001505    0.23    109.58   
    10. A(Cl  1,C   0,Cl  2)          111.48  0.001067   -0.17    111.31   
    ----------------------------------------------------------------------------

         *************************************************************
         *                GEOMETRY OPTIMIZATION CYCLE   2            *
         *************************************************************
---------------------------------
CARTESIAN COORDINATES (ANGSTROEM)
---------------------------------
  C     -3.081346    2.280775    0.041436
  Cl    -1.325208    2.263478    0.063851
  Cl    -3.693169    3.403074   -1.162999
  F     -3.532843    2.646363    1.252312
  H     -3.439383    1.281919   -0.194601

----------------------------
CARTESIAN COORDINATES (A.U.)
----------------------------
  NO LB      ZA    FRAG      MASS         X                   Y                   Z
   0 C     6.0000    0    12.011         -5.822900388449316          4.310040535608537          0.078303013173067
   1 Cl   17.0000    0    35.453         -2.504281050923579          4.277353823292298          0.120660537355538
   2 Cl   17.0000    0    35.453         -6.979078655753464          6.430878482380316         -2.197748796771938
   3 F     9.0000    0    18.998         -6.676106196520347          5.000901411221088          2.366527336572603
   4 H     1.0000    0     1.008         -6.499491512507685          2.422476320754258         -0.367742090329288
* core charge reduced due to ECP

--------------------------------
INTERNAL COORDINATES (ANGSTROEM)
--------------------------------
 C      0   0   0     0.000000000000     0.00000000     0.00000000
 Cl     1   0   0     1.756365930958     0.00000000     0.00000000
 Cl     1   2   0     1.756287545164   111.30678051     0.00000000
 F      1   2   3     1.343028345415   109.10554172   239.54722758
 H      1   2   3     1.087022014565   108.84764162   120.00549833

---------------------------
INTERNAL COORDINATES (A.U.)
---------------------------
 C      0   0   0     0.000000000000     0.00000000     0.00000000
 Cl     1   0   0     3.319050600460     0.00000000     0.00000000
 Cl     1   2   0     3.318902472777   111.30678051     0.00000000
 F      1   2   3     2.537955762927   109.10554172   239.54722758
 H      1   2   3     2.054173909072   108.84764162   120.00549833



           ************************************************************
           *        Program running with 8 parallel MPI-processes     *
           *              working on a common directory               *
           ************************************************************
 One Electron integrals                  ... done
 Pre-screening matrix                    ... done


           ************************************************************
           *        Program running with 8 parallel MPI-processes     *
           *              working on a common directory               *
           ************************************************************

Diagonalization of the overlap matrix:
Smallest eigenvalue                        ... 1.225e-02
Time for diagonalization                   ...    0.002 sec
Threshold for overlap eigenvalues          ... 1.000e-08
Number of eigenvalues below threshold      ... 0
Time for construction of square roots      ...    0.001 sec
Total time needed                          ...    0.003 sec

-------------------
DFT GRID GENERATION
-------------------

General Integration Accuracy     IntAcc      ...  4.670
Radial Grid Type                 RadialGrid  ... Gauss-Chebyshev
Angular Grid (max. acc.)         AngularGrid ... Lebedev-302
Angular grid pruning method      GridPruning ... 3 (G Style)
Weight generation scheme         WeightScheme... Becke
Basis function cutoff            BFCut       ...    1.0000e-11
Integration weight cutoff        WCut        ...    1.0000e-14
Grids for H and He will be reduced by one unit

# of grid points (after initial pruning)     ...  29354 (   0.0 sec)
# of grid points (after weights+screening)   ...  28665 (   0.0 sec)
nearest neighbour list constructed           ...    0.0 sec
Grid point re-assignment to atoms done       ...    0.0 sec
Grid point division into batches done        ...    0.2 sec
Reduced shell lists constructed in    0.2 sec

Total number of grid points                  ...    28665
Total number of batches                      ...      450
Average number of points per batch           ...       63
Average number of grid points per atom       ...     5733
Average number of shells per batch           ...    23.83 (74.46%)
Average number of basis functions per batch  ...    54.38 (79.97%)
Average number of large shells per batch     ...    21.84 (91.68%)
Average number of large basis fcns per batch ...    50.74 (93.31%)
Maximum spatial batch extension              ...  15.80, 16.64, 15.06 au
Average spatial batch extension              ...   0.30,  0.31,  0.30 au

Time for grid setup =    0.256 sec

--------------
SCF ITERATIONS
--------------
ITER       Energy         Delta-E        Max-DP      RMS-DP      [F,P]     Damp
               ***  Starting incremental Fock matrix formation  ***
                      *** Initiating the SOSCF procedure ***
                      *** Re-Reading the Fockian *** 
                      *** Removing any level shift *** 
ITER      Energy       Delta-E        Grad      Rot      Max-DP    RMS-DP
  0  -1057.67342647 -1057.6734264697  0.001274  0.001274  0.001755  0.000121
               *** Restarting incremental Fock matrix formation ***
  1  -1057.67345692  -0.0000304506  0.000385  0.000786  0.000976  0.000070
  2  -1057.67346058  -0.0000036597  0.000252  0.000538  0.000665  0.000042
  3  -1057.67346127  -0.0000006882  0.000099  0.000160  0.000199  0.000015
  4  -1057.67346149  -0.0000002202  0.000020  0.000016  0.000055  0.000002
  5  -1057.67346149  -0.0000000003  0.000021  0.000009  0.000029  0.000001
                  ***Gradient check signals convergence***
              ***Rediagonalizing the Fockian in SOSCF/NRSCF***

               *****************************************************
               *                     SUCCESS                       *
               *           SCF CONVERGED AFTER   6 CYCLES          *
               *****************************************************

Total Energy       :        -1057.67346149 Eh          -28780.75807 eV
  Last Energy change         ...   -3.1871e-09  Tolerance :   1.0000e-08
  Last MAX-Density change    ...    5.1643e-06  Tolerance :   1.0000e-07
             **** THE GBW FILE WAS UPDATED (MeCl2F_116.gbw) ****
             **** DENSITY FILE WAS UPDATED (MeCl2F_116.scfp.tmp) ****
             **** ENERGY FILE WAS UPDATED (MeCl2F_116.en.tmp) ****
Total SCF time: 0 days 0 hours 0 min 5 sec 


-------------------------------------------------------------------------------
                          DFT DISPERSION CORRECTION                            
                                                                               
                              DFTD3 V3.1  Rev 1                                
                          USING Becke-Johnson damping                          
-------------------------------------------------------------------------------
-------------------------   ----------------
Dispersion correction           -0.001843871
-------------------------   ----------------

------------------   -----------------
gCP correction             0.012634627
------------------   -----------------

-------------------------   --------------------
FINAL SINGLE POINT ENERGY     -1057.662670736564
-------------------------   --------------------



           ************************************************************
           *        Program running with 8 parallel MPI-processes     *
           *              working on a common directory               *
           ************************************************************
------------------------------------------------------------------------------
                         ORCA SCF GRADIENT CALCULATION
------------------------------------------------------------------------------

Gradient of the Kohn-Sham DFT energy:
Kohn-Sham wavefunction type      ... RKS
Hartree-Fock exchange scaling    ...    0.420
Number of operators              ...    1
Number of atoms                  ...    5
Basis set dimensions             ...   68
Integral neglect threshold       ... 0.0e+00
Integral primitive cutoff        ... 0.0e+00

Nuclear repulsion gradient       ... done
One Electron Gradient            
  ECP gradient                   ... done
Pre-screening matrix             ... done
Starting the two electron gradient:
Will do only exchange terms
Two electron gradient done
RI-J gradient                    ... done
Exchange-correlation gradient    ... done
Dispersion correction            ... done
gCP correction                   ... done

------------------
CARTESIAN GRADIENT
------------------

   1   C   :    0.000864948   -0.000208765   -0.001907687
   2   Cl  :   -0.000253774   -0.000030393    0.000079908
   3   Cl  :    0.000044837   -0.000161366    0.000226166
   4   F   :   -0.000614843    0.000291871    0.001366041
   5   H   :   -0.000041168    0.000108654    0.000235571

Difference to translation invariance:
           :    0.0000000000   -0.0000000001   -0.0000000000

Norm of the cartesian gradient     ...    0.0026420034
RMS gradient                       ...    0.0006821624
MAX gradient                       ...    0.0019076870

-------
TIMINGS
-------

Total SCF gradient time            ...        1.819 sec

One electron gradient       ....       0.005 sec  (  0.3%)
Prescreening matrices       ....       0.025 sec  (  1.4%)
Two electron gradient       ....       0.414 sec  ( 22.8%)
RI-J Coulomb gradient       ....       0.293 sec  ( 16.1%)
XC gradient                 ....       0.324 sec  ( 17.8%)
------------------------------------------------------------------------------
                         ORCA GEOMETRY RELAXATION STEP
------------------------------------------------------------------------------

Reading the OPT-File                    .... done
Getting information on internals        .... done
Copying old internal coords+grads       .... done
Making the new internal coordinates     .... (new redundants).... done
Validating the new internal coordinates .... (new redundants).... done
Calculating the B-matrix                .... done
Calculating the G,G- and P matrices     .... done
Transforming gradient to internals      .... done
Projecting the internal gradient        .... done
Number of atoms                         ....   5
Number of internal coordinates          ....  10
Current Energy                          .... -1057.662670737 Eh
Current gradient norm                   ....     0.002642003 Eh/bohr
Maximum allowed component of the step   ....  0.300
Current trust radius                    ....  0.300
Updating the Hessian (BFGS)             .... done
Forming the augmented Hessian           .... done
Diagonalizing the augmented Hessian     .... done
Last element of RFO vector              ....  0.999992575
Lowest eigenvalues of augmented Hessian:
 -0.000006231  0.335618229  0.337432643  0.354996818  0.362362117
Length of the computed step             ....  0.003853526
The final length of the internal step   ....  0.003853526
Converting the step to cartesian space:
 Initial RMS(Int)=    0.0012185918
Transforming coordinates:
 Iter   0:  RMS(Cart)=    0.0007405325 RMS(Int)=    0.0012185924
 Iter   1:  RMS(Cart)=    0.0000005499 RMS(Int)=    0.0000004950
 Iter   2:  RMS(Cart)=    0.0000000004 RMS(Int)=    0.0000000004
done
Storing new coordinates                 .... done
The predicted energy change is          ....    -0.000003115
Previously predicted energy change      ....    -0.000057019
Actually observed energy change         ....    -0.000065323
Ratio of predicted to observed change   ....     1.145632772
New trust radius                        ....     0.450000000

                                .--------------------.
          ----------------------|Geometry convergence|-------------------------
          Item                value                   Tolerance       Converged
          ---------------------------------------------------------------------
          Energy change      -0.0000653231            0.0000010000      NO
          RMS gradient        0.0005199502            0.0000003000      NO
          MAX gradient        0.0015186205            0.0000005000      NO
          RMS step            0.0012185918            0.0006000000      NO
          MAX step            0.0032642139            0.0010000000      NO
          ........................................................
          Max(Bonds)      0.0017      Max(Angles)    0.08
          Max(Dihed)        0.00      Max(Improp)    0.00
          ---------------------------------------------------------------------

The optimization has not yet converged - more geometry cycles are needed


    ---------------------------------------------------------------------------
                         Redundant Internal Coordinates
                            (Angstroem and degrees)

        Definition                    Value    dE/dq     Step     New-Value
    ----------------------------------------------------------------------------
     1. B(Cl  1,C   0)                1.7564 -0.000252  0.0004    1.7567   
     2. B(Cl  2,C   0)                1.7563 -0.000275  0.0004    1.7567   
     3. B(F   3,C   0)                1.3430  0.001519 -0.0017    1.3413   
     4. B(H   4,C   0)                1.0870 -0.000138  0.0002    1.0873   
     5. A(Cl  1,C   0,F   3)          109.11  0.000007   -0.01    109.10   
     6. A(Cl  2,C   0,F   3)          109.10 -0.000054    0.00    109.10   
     7. A(Cl  1,C   0,H   4)          108.85  0.000059   -0.01    108.84   
     8. A(Cl  2,C   0,H   4)          108.88  0.000110   -0.02    108.86   
     9. A(F   3,C   0,H   4)          109.58 -0.000392    0.08    109.67   
    10. A(Cl  1,C   0,Cl  2)          111.31  0.000259   -0.05    111.26   
    ----------------------------------------------------------------------------

         *************************************************************
         *                GEOMETRY OPTIMIZATION CYCLE   3            *
         *************************************************************
---------------------------------
CARTESIAN COORDINATES (ANGSTROEM)
---------------------------------
  C     -3.081804    2.280580    0.042140
  Cl    -1.325289    2.263803    0.064011
  Cl    -3.693043    3.403241   -1.162849
  F     -3.532229    2.646423    1.251423
  H     -3.439584    1.281562   -0.194725

----------------------------
CARTESIAN COORDINATES (A.U.)
----------------------------
  NO LB      ZA    FRAG      MASS         X                   Y                   Z
   0 C     6.0000    0    12.011         -5.823766175145261          4.309671365963588          0.079633246446304
   1 Cl   17.0000    0    35.453         -2.504433916880954          4.277968205074159          0.120963592826679
   2 Cl   17.0000    0    35.453         -6.978839115238911          6.431194169551459         -2.197466942978401
   3 F     9.0000    0    18.998         -6.674946198742831          5.001014887788640          2.364846136045370
   4 H     1.0000    0     1.008         -6.499872398146434          2.421801944878651         -0.367976032339971
* core charge reduced due to ECP

--------------------------------
INTERNAL COORDINATES (ANGSTROEM)
--------------------------------
 C      0   0   0     0.000000000000     0.00000000     0.00000000
 Cl     1   0   0     1.756731244501     0.00000000     0.00000000
 Cl     1   2   0     1.756696003859   111.25674826     0.00000000
 F      1   2   3     1.341300997797   109.09594398   239.58297552
 H      1   2   3     1.087265969473   108.84208181   119.95127086

---------------------------
INTERNAL COORDINATES (A.U.)
---------------------------
 C      0   0   0     0.000000000000     0.00000000     0.00000000
 Cl     1   0   0     3.319740943010     0.00000000     0.00000000
 Cl     1   2   0     3.319674347848   111.25674826     0.00000000
 F      1   2   3     2.534691548992   109.09594398   239.58297552
 H      1   2   3     2.054634917036   108.84208181   119.95127086



           ************************************************************
           *        Program running with 8 parallel MPI-processes     *
           *              working on a common directory               *
           ************************************************************
 One Electron integrals                  ... done
 Pre-screening matrix                    ... done


           ************************************************************
           *        Program running with 8 parallel MPI-processes     *
           *              working on a common directory               *
           ************************************************************

Diagonalization of the overlap matrix:
Smallest eigenvalue                        ... 1.225e-02
Time for diagonalization                   ...    0.002 sec
Threshold for overlap eigenvalues          ... 1.000e-08
Number of eigenvalues below threshold      ... 0
Time for construction of square roots      ...    0.001 sec
Total time needed                          ...    0.003 sec

-------------------
DFT GRID GENERATION
-------------------

General Integration Accuracy     IntAcc      ...  4.670
Radial Grid Type                 RadialGrid  ... Gauss-Chebyshev
Angular Grid (max. acc.)         AngularGrid ... Lebedev-302
Angular grid pruning method      GridPruning ... 3 (G Style)
Weight generation scheme         WeightScheme... Becke
Basis function cutoff            BFCut       ...    1.0000e-11
Integration weight cutoff        WCut        ...    1.0000e-14
Grids for H and He will be reduced by one unit

# of grid points (after initial pruning)     ...  29354 (   0.0 sec)
# of grid points (after weights+screening)   ...  28664 (   0.0 sec)
nearest neighbour list constructed           ...    0.0 sec
Grid point re-assignment to atoms done       ...    0.0 sec
Grid point division into batches done        ...    0.2 sec
Reduced shell lists constructed in    0.2 sec

Total number of grid points                  ...    28664
Total number of batches                      ...      450
Average number of points per batch           ...       63
Average number of grid points per atom       ...     5733
Average number of shells per batch           ...    23.83 (74.46%)
Average number of basis functions per batch  ...    54.38 (79.97%)
Average number of large shells per batch     ...    21.84 (91.68%)
Average number of large basis fcns per batch ...    50.74 (93.31%)
Maximum spatial batch extension              ...  15.80, 16.64, 15.06 au
Average spatial batch extension              ...   0.30,  0.31,  0.30 au

Time for grid setup =    0.255 sec

--------------
SCF ITERATIONS
--------------
ITER       Energy         Delta-E        Max-DP      RMS-DP      [F,P]     Damp
               ***  Starting incremental Fock matrix formation  ***
                      *** Initiating the SOSCF procedure ***
                      *** Re-Reading the Fockian *** 
                      *** Removing any level shift *** 
ITER      Energy       Delta-E        Grad      Rot      Max-DP    RMS-DP
  0  -1057.67346473 -1057.6734647306  0.000445  0.000445  0.000437  0.000030
               *** Restarting incremental Fock matrix formation ***
  1  -1057.67346657  -0.0000018414  0.000079  0.000116  0.000195  0.000012
  2  -1057.67346672  -0.0000001442  0.000073  0.000068  0.000160  0.000006
  3  -1057.67346676  -0.0000000473  0.000023  0.000019  0.000034  0.000002
  4  -1057.67346677  -0.0000000061  0.000004  0.000007  0.000010  0.000001
  5  -1057.67346677  -0.0000000000  0.000004  0.000003  0.000005  0.000000
                 **** Energy Check signals convergence ****
              ***Rediagonalizing the Fockian in SOSCF/NRSCF***

               *****************************************************
               *                     SUCCESS                       *
               *           SCF CONVERGED AFTER   6 CYCLES          *
               *****************************************************

Total Energy       :        -1057.67346677 Eh          -28780.75822 eV
  Last Energy change         ...   -1.8485e-10  Tolerance :   1.0000e-08
  Last MAX-Density change    ...    3.9754e-07  Tolerance :   1.0000e-07
             **** THE GBW FILE WAS UPDATED (MeCl2F_116.gbw) ****
             **** DENSITY FILE WAS UPDATED (MeCl2F_116.scfp.tmp) ****
             **** ENERGY FILE WAS UPDATED (MeCl2F_116.en.tmp) ****
Total SCF time: 0 days 0 hours 0 min 5 sec 


-------------------------------------------------------------------------------
                          DFT DISPERSION CORRECTION                            
                                                                               
                              DFTD3 V3.1  Rev 1                                
                          USING Becke-Johnson damping                          
-------------------------------------------------------------------------------
-------------------------   ----------------
Dispersion correction           -0.001843953
-------------------------   ----------------

------------------   -----------------
gCP correction             0.012636013
------------------   -----------------

-------------------------   --------------------
FINAL SINGLE POINT ENERGY     -1057.662674709175
-------------------------   --------------------



           ************************************************************
           *        Program running with 8 parallel MPI-processes     *
           *              working on a common directory               *
           ************************************************************
------------------------------------------------------------------------------
                         ORCA SCF GRADIENT CALCULATION
------------------------------------------------------------------------------

Gradient of the Kohn-Sham DFT energy:
Kohn-Sham wavefunction type      ... RKS
Hartree-Fock exchange scaling    ...    0.420
Number of operators              ...    1
Number of atoms                  ...    5
Basis set dimensions             ...   68
Integral neglect threshold       ... 0.0e+00
Integral primitive cutoff        ... 0.0e+00

Nuclear repulsion gradient       ... done
One Electron Gradient            
  ECP gradient                   ... done
Pre-screening matrix             ... done
Starting the two electron gradient:
Will do only exchange terms
Two electron gradient done
RI-J gradient                    ... done
Exchange-correlation gradient    ... done
Dispersion correction            ... done
gCP correction                   ... done

------------------
CARTESIAN GRADIENT
------------------

   1   C   :    0.000378516    0.000039219   -0.000736979
   2   Cl  :   -0.000260747    0.000042013    0.000098773
   3   Cl  :    0.000079718   -0.000111803    0.000239987
   4   F   :   -0.000122513    0.000052472    0.000239583
   5   H   :   -0.000074974   -0.000021902    0.000158636

Difference to translation invariance:
           :    0.0000000000   -0.0000000000    0.0000000000

Norm of the cartesian gradient     ...    0.0009748533
RMS gradient                       ...    0.0002517060
MAX gradient                       ...    0.0007369792

-------
TIMINGS
-------

Total SCF gradient time            ...        1.807 sec

One electron gradient       ....       0.005 sec  (  0.3%)
Prescreening matrices       ....       0.026 sec  (  1.4%)
Two electron gradient       ....       0.416 sec  ( 23.0%)
RI-J Coulomb gradient       ....       0.292 sec  ( 16.2%)
XC gradient                 ....       0.314 sec  ( 17.4%)
------------------------------------------------------------------------------
                         ORCA GEOMETRY RELAXATION STEP
------------------------------------------------------------------------------

Reading the OPT-File                    .... done
Getting information on internals        .... done
Copying old internal coords+grads       .... done
Making the new internal coordinates     .... (new redundants).... done
Validating the new internal coordinates .... (new redundants).... done
Calculating the B-matrix                .... done
Calculating the G,G- and P matrices     .... done
Transforming gradient to internals      .... done
Projecting the internal gradient        .... done
Number of atoms                         ....   5
Number of internal coordinates          ....  10
Current Energy                          .... -1057.662674709 Eh
Current gradient norm                   ....     0.000974853 Eh/bohr
Maximum allowed component of the step   ....  0.300
Current trust radius                    ....  0.450
Updating the Hessian (BFGS)             .... done
Forming the augmented Hessian           .... done
Diagonalizing the augmented Hessian     .... done
Last element of RFO vector              ....  0.999996725
Lowest eigenvalues of augmented Hessian:
 -0.000001537  0.224564179  0.336908182  0.353908390  0.362360652
Length of the computed step             ....  0.002559356
The final length of the internal step   ....  0.002559356
Converting the step to cartesian space:
 Initial RMS(Int)=    0.0008093394
Transforming coordinates:
 Iter   0:  RMS(Cart)=    0.0004445999 RMS(Int)=    0.0008095040
 Iter   1:  RMS(Cart)=    0.0000002981 RMS(Int)=    0.0000003864
 Iter   2:  RMS(Cart)=    0.0000000002 RMS(Int)=    0.0000000002
done
Storing new coordinates                 .... done
The predicted energy change is          ....    -0.000000768
Previously predicted energy change      ....    -0.000003115
Actually observed energy change         ....    -0.000003973
Ratio of predicted to observed change   ....     1.275167719
New trust radius                        ....     0.450000000

                                .--------------------.
          ----------------------|Geometry convergence|-------------------------
          Item                value                   Tolerance       Converged
          ---------------------------------------------------------------------
          Energy change      -0.0000039726            0.0000010000      NO
          RMS gradient        0.0001930565            0.0000003000      NO
          MAX gradient        0.0002722358            0.0000005000      NO
          RMS step            0.0008093394            0.0006000000      NO
          MAX step            0.0013068540            0.0010000000      NO
          ........................................................
          Max(Bonds)      0.0007      Max(Angles)    0.06
          Max(Dihed)        0.00      Max(Improp)    0.00
          ---------------------------------------------------------------------

The optimization has not yet converged - more geometry cycles are needed


    ---------------------------------------------------------------------------
                         Redundant Internal Coordinates
                            (Angstroem and degrees)

        Definition                    Value    dE/dq     Step     New-Value
    ----------------------------------------------------------------------------
     1. B(Cl  1,C   0)                1.7567 -0.000259  0.0005    1.7573   
     2. B(Cl  2,C   0)                1.7567 -0.000265  0.0005    1.7572   
     3. B(F   3,C   0)                1.3413  0.000272 -0.0007    1.3406   
     4. B(H   4,C   0)                1.0873  0.000010  0.0000    1.0873   
     5. A(Cl  1,C   0,F   3)          109.10 -0.000140    0.02    109.12   
     6. A(Cl  2,C   0,F   3)          109.10 -0.000145    0.03    109.13   
     7. A(Cl  1,C   0,H   4)          108.84  0.000166   -0.03    108.81   
     8. A(Cl  2,C   0,H   4)          108.86  0.000196   -0.04    108.82   
     9. A(F   3,C   0,H   4)          109.67 -0.000200    0.06    109.73   
    10. A(Cl  1,C   0,Cl  2)          111.26  0.000119   -0.03    111.22   
    ----------------------------------------------------------------------------

         *************************************************************
         *                GEOMETRY OPTIMIZATION CYCLE   4            *
         *************************************************************
---------------------------------
CARTESIAN COORDINATES (ANGSTROEM)
---------------------------------
  C     -3.082122    2.280610    0.042815
  Cl    -1.325069    2.263721    0.063882
  Cl    -3.693080    3.403232   -1.163152
  F     -3.532214    2.646406    1.251469
  H     -3.439465    1.281642   -0.195015

----------------------------
CARTESIAN COORDINATES (A.U.)
----------------------------
  NO LB      ZA    FRAG      MASS         X                   Y                   Z
   0 C     6.0000    0    12.011         -5.824366161730925          4.309728124277651          0.080909079044643
   1 Cl   17.0000    0    35.453         -2.504017895821236          4.277812132055027          0.120719525907473
   2 Cl   17.0000    0    35.453         -6.978910489343138          6.431176368475305         -2.198038201081201
   3 F     9.0000    0    18.998         -6.674916832422582          5.000981973010200          2.364933966390471
   4 H     1.0000    0     1.008         -6.499646424836509          2.421951975438314         -0.368524370261405
* core charge reduced due to ECP

--------------------------------
INTERNAL COORDINATES (ANGSTROEM)
--------------------------------
 C      0   0   0     0.000000000000     0.00000000     0.00000000
 Cl     1   0   0     1.757260078983     0.00000000     0.00000000
 Cl     1   2   0     1.757244131731   111.22347000     0.00000000
 F      1   2   3     1.340609440446   109.11779090   239.55832311
 H      1   2   3     1.087287604336   108.80864286   119.85710813

---------------------------
INTERNAL COORDINATES (A.U.)
---------------------------
 C      0   0   0     0.000000000000     0.00000000     0.00000000
 Cl     1   0   0     3.320740295351     0.00000000     0.00000000
 Cl     1   2   0     3.320710159412   111.22347000     0.00000000
 F      1   2   3     2.533384694991   109.11779090   239.55832311
 H      1   2   3     2.054675801002   108.80864286   119.85710813



           ************************************************************
           *        Program running with 8 parallel MPI-processes     *
           *              working on a common directory               *
           ************************************************************
 One Electron integrals                  ... done
 Pre-screening matrix                    ... done


           ************************************************************
           *        Program running with 8 parallel MPI-processes     *
           *              working on a common directory               *
           ************************************************************

Diagonalization of the overlap matrix:
Smallest eigenvalue                        ... 1.226e-02
Time for diagonalization                   ...    0.002 sec
[...]
  QA   - Mulliken gross atomic charge
  VA   - Mayer's total valence
  BVA  - Mayer's bonded valence
  FA   - Mayer's free valence

  ATOM       NA         ZA         QA         VA         BVA        FA
  0 C      5.8717     6.0000     0.1283     3.9396     3.9396    -0.0000
  1 Cl    17.0606    17.0000    -0.0606     1.1186     1.1186    -0.0000
  2 Cl    17.0606    17.0000    -0.0606     1.1186     1.1186     0.0000
  3 F      9.2792     9.0000    -0.2792     1.0737     1.0737     0.0000
  4 H      0.7279     1.0000     0.2721     0.8568     0.8568    -0.0000

  Mayer bond orders larger than 0.1
B(  0-C ,  1-Cl) :   1.0472 B(  0-C ,  2-Cl) :   1.0472 B(  0-C ,  3-F ) :   1.0006 
B(  0-C ,  4-H ) :   0.8445 

-------
TIMINGS
-------

Total SCF time: 0 days 0 hours 0 min 1 sec 

Total time                  ....       1.668 sec
Sum of individual times     ....       1.646 sec  ( 98.7%)

Fock matrix formation       ....       1.324 sec  ( 79.4%)
  XC integration            ....       0.089 sec  (  6.7% of F)
    Basis function eval.    ....       0.023 sec  ( 25.4% of XC)
    Density eval.           ....       0.015 sec  ( 17.2% of XC)
    XC-Functional eval.     ....       0.010 sec  ( 10.8% of XC)
    XC-Potential eval.      ....       0.022 sec  ( 24.9% of XC)
Diagonalization             ....       0.003 sec  (  0.2%)
Density matrix formation    ....       0.052 sec  (  3.1%)
Population analysis         ....       0.003 sec  (  0.2%)
Initial guess               ....       0.003 sec  (  0.2%)
Orbital Transformation      ....       0.000 sec  (  0.0%)
Orbital Orthonormalization  ....       0.001 sec  (  0.1%)
DIIS solution               ....       0.000 sec  (  0.0%)
SOSCF solution              ....       0.006 sec  (  0.4%)
Grid generation             ....       0.255 sec  ( 15.3%)


-------------------------------------------------------------------------------
                          DFT DISPERSION CORRECTION                            
                                                                               
                              DFTD3 V3.1  Rev 1                                
                          USING Becke-Johnson damping                          
-------------------------------------------------------------------------------
The PBEh-3c composite method is recognized
Using three-body term ABC
Active option DFTDOPT                   ...         4   

molecular C6(AA) [au] = 759.565905 


            DFT-D V3
 parameters
 s6 scaling factor         :     1.0000 
 a1 scaling factor         :     0.4860 
 s8 scaling factor         :     0.0000 
 a2 scaling factor         :     4.5000 
 Damping factor alpha9(ATM):    16.0000 
 ad hoc parameters k1-k3   :    16.0000     1.3333    -4.0000 

 Edisp/kcal,au: -1.157029785076  -0.001843844132 
 E6   /kcal   :  -1.157261818 
 E8   /kcal   :  -0.000000000 
 E6(ABC)      :   0.000232033 
 % E8         :   0.000000000 
 % E6(ABC)    :  -0.020054179 

-------------------------   ----------------
Dispersion correction           -0.001843844
-------------------------   ----------------

Egcp:       0.0126303145 a.u.
------------------   -----------------
gCP correction             0.012630314
------------------   -----------------

-------------------------   --------------------
FINAL SINGLE POINT ENERGY     -1057.662675741144
-------------------------   --------------------

                                *** OPTIMIZATION RUN DONE ***

                            ***************************************
                            *     ORCA property calculations      *
                            ***************************************

                                    ---------------------
                                    Active property flags
                                    ---------------------
   (+) Dipole Moment


------------------------------------------------------------------------------
                       ORCA ELECTRIC PROPERTIES CALCULATION
------------------------------------------------------------------------------

Dipole Moment Calculation                       ... on
Quadrupole Moment Calculation                   ... off
Polarizability Calculation                      ... off
GBWName                                         ... MeCl2F_116.gbw
Electron density file                           ... MeCl2F_116.scfp.tmp

-------------
DIPOLE MOMENT
-------------
                                X             Y             Z
Electronic contribution:      0.47917       1.09589       0.09265
Nuclear contribution   :     -0.63260      -1.58775      -0.25359
                        -----------------------------------------
Total Dipole Moment    :     -0.15343      -0.49186      -0.16094
                        -----------------------------------------
Magnitude (a.u.)       :      0.53979
Magnitude (Debye)      :      1.37203



           ************************************************************
           *        Program running with 8 parallel MPI-processes     *
           *              working on a common directory               *
           ************************************************************

-------------------------------------------------------------------------------
                               ORCA SCF HESSIAN
-------------------------------------------------------------------------------

Hessian of the Kohn-Sham DFT energy:
Kohn-Sham wavefunction type                      ... RKS
Hartree-Fock exchange scaling                    ...    0.420
Number of operators                              ...    1
Number of atoms                                  ...    5
Basis set dimensions                             ...   68
Integral neglect threshold                       ... 0.0e+00
Integral primitive cutoff                        ... 0.0e+00

Setting up DFT Hessian calculations              ... 
Electron density on the grid                     ... found on disk
Building xc-kernel on the grid                   ... done   (      0.0 sec)
                                                     done   (      0.1 sec)

Nuclear repulsion Hessian                        ... done   (      0.0 sec)

----------------------------------------------
Forming right-hand sides of CP-SCF equations     ...
----------------------------------------------
One electron integral derivatives                ... done   (      0.3 sec)
Transforming the overlap derivative matrices     ... done   (      0.0 sec)
Making the Q(x) pseudodensities                  ... done   (      0.0 sec)
Adding the E*S(x)*S(y) terms to the Hessian      ... done   (      0.0 sec)
Calculating energy weighted overlap derivatives  ... done   (      0.0 sec)
F(y): ECP integral derivatives                   ... done   (      0.0 sec)
Two electron integral derivatives (RI)           ... done   (      1.1 sec)
Exchange-correlation integral derivatives        ... done   (      1.1 sec)
tr(F(y)Q(x)) contribution to the Hessian         ... done   (      0.0 sec)
Response fock operator R(S(x)) (RI)              ... done   (      1.3 sec)
XC Response fock operator R(S(x))                ... done   (      0.3 sec)
tr(F(y)S(x)) contribution to the Hessian         ... done   (      0.0 sec)
Transforming and finalizing RHSs                 ... done   (      0.0 sec)

----------------------------------------------
Solving the CP-SCF equations (RI)                ...
----------------------------------------------
     CP-SCF ITERATION   0: 
     CP-SCF ITERATION   1:      0.000901186340
     CP-SCF ITERATION   2:      0.000082684881
     CP-SCF ITERATION   3:      0.000003801890
     CP-SCF ITERATION   4:      0.000000434753
     CP-SCF ITERATION   5:      0.000000022456
     CP-SCF ITERATION   6:      0.000000001829

                                                 ... done   (     11.4 sec)
Forming perturbed density Hessian contributions  ... done   (      0.0 sec)
Making the perturbed densities                   ... done   (      0.0 sec)
2nd integral derivative contribs (RI)            ... done   (      4.5 sec)
Exchange-correlation Hessian                     ... done   (      1.3 sec)
ECP integral 2nd derivatives                     ... done   (      0.0 sec)
Dispersion correction in the Hessian             ... done   (      1.5 sec)
gCP correction in the Hessian                    ... done   (      0.1 sec)
Dipol derivatives                                ... done   (      0.3 sec)

Total SCF Hessian time: 0 days 0 hours 0 min 23 sec 

Writing the Hessian file to the disk             ... done


-----------------------
VIBRATIONAL FREQUENCIES
-----------------------

   0:         0.00 cm**-1
   1:         0.00 cm**-1
   2:         0.00 cm**-1
   3:         0.00 cm**-1
   4:         0.00 cm**-1
   5:         0.00 cm**-1
   6:       287.12 cm**-1
   7:       376.06 cm**-1
   8:       471.57 cm**-1
   9:       772.48 cm**-1
  10:       836.82 cm**-1
  11:      1177.78 cm**-1
  12:      1334.21 cm**-1
  13:      1389.20 cm**-1
  14:      3210.00 cm**-1


------------
NORMAL MODES
------------

These modes are the cartesian displacements weighted by the diagonal matrix
M(i,i)=1/sqrt(m[i]) where m[i] is the mass of the displaced atom
Thus, these vectors are normalized but *not* orthogonal

                  0          1          2          3          4          5    
      0       0.000000   0.000000   0.000000   0.000000   0.000000   0.000000
      1       0.000000   0.000000   0.000000   0.000000   0.000000   0.000000
      2       0.000000   0.000000   0.000000   0.000000   0.000000   0.000000
      3       0.000000   0.000000   0.000000   0.000000   0.000000   0.000000
      4       0.000000   0.000000   0.000000   0.000000   0.000000   0.000000
      5       0.000000   0.000000   0.000000   0.000000   0.000000   0.000000
      6       0.000000   0.000000   0.000000   0.000000   0.000000   0.000000
      7       0.000000   0.000000   0.000000   0.000000   0.000000   0.000000
      8       0.000000   0.000000   0.000000   0.000000   0.000000   0.000000
      9       0.000000   0.000000   0.000000   0.000000   0.000000   0.000000
     10       0.000000   0.000000   0.000000   0.000000   0.000000   0.000000
     11       0.000000   0.000000   0.000000   0.000000   0.000000   0.000000
     12       0.000000   0.000000   0.000000   0.000000   0.000000   0.000000
     13       0.000000   0.000000   0.000000   0.000000   0.000000   0.000000
     14       0.000000   0.000000   0.000000   0.000000   0.000000   0.000000
                  6          7          8          9         10         11    
      0      -0.202953  -0.076285  -0.011419  -0.305458   0.559038   0.170214
      1      -0.103096   0.038934   0.352020  -0.515059  -0.266982  -0.208263
      2       0.296011  -0.038996   0.348813   0.115243   0.289045  -0.521677
      3      -0.278090  -0.288985   0.288048   0.122198  -0.122811  -0.001250
      4       0.220577   0.057909  -0.105564   0.040645  -0.011185   0.000998
      5      -0.332748   0.172297  -0.085362   0.008412  -0.020875   0.003341
      6       0.464001  -0.016474  -0.104632  -0.020716  -0.048178  -0.001276
      7      -0.136238   0.088849   0.082839   0.109823   0.092878   0.001061
      8       0.050759  -0.331530  -0.286851  -0.066066  -0.067466   0.003248
      9      -0.204878   0.634987  -0.340000   0.026551  -0.064906  -0.114817
     10      -0.086388  -0.306669  -0.200165   0.073672   0.030919   0.139323
     11       0.318018   0.330500   0.464887   0.017293  -0.033623   0.351168
     12      -0.259098  -0.315277   0.093103  -0.429933   0.575961   0.224588
     13      -0.109699   0.154190   0.377292  -0.543437  -0.274752  -0.216668
     14       0.397086  -0.163875   0.173153   0.328665   0.296628  -0.634179
                  12         13         14    
      0       0.074866   0.060424  -0.028141
      1      -0.036023   0.021718  -0.079448
      2       0.038830  -0.096279  -0.019464
      3       0.006747   0.001877   0.000042
      4       0.008904   0.002854   0.000275
      5      -0.000351   0.003698   0.000095
      6      -0.003709  -0.001358   0.000097
      7      -0.010373   0.004404   0.000249
      8       0.001920   0.002029   0.000121
      9      -0.009880  -0.014452   0.000203
     10       0.004762  -0.026031   0.000689
     11      -0.005109   0.003682   0.000255
     12      -0.812701  -0.465862   0.326595
     13       0.391129  -0.023442   0.915240
     14      -0.421579   0.876402   0.219517


-----------
IR SPECTRUM
-----------

 Mode    freq (cm**-1)   T**2         TX         TY         TZ
-------------------------------------------------------------------
   6:       287.12    0.361064  ( -0.328835  -0.185526   0.467452)
   7:       376.06    0.134358  ( -0.297345   0.150420  -0.152703)
   8:       471.57    1.998985  (  0.025836   1.065505   0.928987)
   9:       772.48   47.131586  ( -3.891153  -4.494241   3.433993)
  10:       836.82  232.412679  ( 12.457087  -5.976829   6.442917)
  11:      1177.78  182.408618  (  5.596781  -1.510136 -12.198531)
  12:      1334.21   61.160443  (  6.383863  -3.074171   3.310016)
  13:      1389.20   30.964105  (  3.174498   2.390813  -3.894956)
  14:      3210.00    7.142911  ( -0.925560  -2.457559  -0.496641)

The first frequency considered to be a vibration is 6
The total number of vibrations considered is 9


--------------------------
THERMOCHEMISTRY AT 298.15K
--------------------------

Temperature         ... 298.15 K
Pressure            ... 1.00 atm
Total Mass          ... 102.92 AMU

Throughout the following assumptions are being made:
  (1) The electronic state is orbitally nondegenerate
  (2) There are no thermally accessible electronically excited states
  (3) Hindered rotations indicated by low frequency modes are not
      treated as such but are treated as vibrations and this may
      cause some error
  (4) All equations used are the standard statistical mechanics
      equations for an ideal gas
  (5) All vibrations are strictly harmonic

freq.     287.12  E(vib)   ...       0.27 
freq.     376.06  E(vib)   ...       0.21 
freq.     471.57  E(vib)   ...       0.15 
freq.     772.48  E(vib)   ...       0.05 
freq.     836.82  E(vib)   ...       0.04 
freq.    1177.78  E(vib)   ...       0.01 
freq.    1334.21  E(vib)   ...       0.01 
freq.    1389.20  E(vib)   ...       0.00 
freq.    3210.00  E(vib)   ...       0.00 

------------
INNER ENERGY
------------

The inner energy is: U= E(el) + E(ZPE) + E(vib) + E(rot) + E(trans)
    E(el)   - is the total energy from the electronic structure calculation
              = E(kin-el) + E(nuc-el) + E(el-el) + E(nuc-nuc)
    E(ZPE)  - the the zero temperature vibrational energy from the frequency calculation
    E(vib)  - the the finite temperature correction to E(ZPE) due to population
              of excited vibrational states
    E(rot)  - is the rotational thermal energy
    E(trans)- is the translational thermal energy

Summary of contributions to the inner energy U:
Electronic energy                ...  -1057.66267574 Eh
Zero point energy                ...      0.02245191 Eh      14.09 kcal/mol
Thermal vibrational correction   ...      0.00120694 Eh       0.76 kcal/mol
Thermal rotational correction    ...      0.00141627 Eh       0.89 kcal/mol
Thermal translational correction ...      0.00141627 Eh       0.89 kcal/mol
-----------------------------------------------------------------------
Total thermal energy                  -1057.63618435 Eh


Summary of corrections to the electronic energy:
(perhaps to be used in another calculation)
Total thermal correction                  0.00403948 Eh       2.53 kcal/mol
Non-thermal (ZPE) correction              0.02245191 Eh      14.09 kcal/mol
-----------------------------------------------------------------------
Total correction                          0.02649139 Eh      16.62 kcal/mol


--------
ENTHALPY
--------

The enthalpy is H = U + kB*T
                kB is Boltzmann's constant
Total free energy                 ...  -1057.63618435 Eh 
Thermal Enthalpy correction       ...      0.00094421 Eh       0.59 kcal/mol
-----------------------------------------------------------------------
Total Enthalpy                    ...  -1057.63524014 Eh


Vibrational entropy computed according to the QRRHO of S. Grimme
Chem.Eur.J. 2012 18 9955

check  

-------
ENTROPY
-------

The entropy contributions are T*S = T*(S(el)+S(vib)+S(rot)+S(trans)
     S(el)   - electronic entropy
     S(vib)  - vibrational entropy
     S(rot)  - rotational entropy
     S(trans)- translational entropy
The entropies will be listed as mutliplied by the temperature to get
units of energy

Electronic entropy                ...      0.00000000 Eh      0.00 kcal/mol
Vibrational entropy               ...      0.00179869 Eh      1.13 kcal/mol
Rotational entropy                ...      0.01140822 Eh      7.16 kcal/mol
Translational entropy             ...      0.01891205 Eh     11.87 kcal/mol
-----------------------------------------------------------------------
Final entropy term                ...      0.03211896 Eh     20.15 kcal/mol


CAUTION: The rotational entropy is not quite correctly treated here
         because it includes a symmetry number that is not yet correctly
         implemented in ORCA!
For a nonlinear molecule the correct rotational entropy is:
    S(rot) = R*(ln(qrot/sn)+1.5)
    R    = 8.31441 J/mol/K = 1.987191683e-3 kcal/mol/K
    qrot = 118334.5731524
    sn is the rotational symmetry number. We have assumed 3 here
       if it is different for your molecule then you should correct
       the printed rotational entropy by manually evaluating the equation
       as given above

For convenience we print out the resulting values for sn=1 - 12:
 sn= 1  qrot/sn=  118334.5732 T*S(rot)=     7.81 kcal/mol T*S(tot)=    20.81 kcal/mol
 sn= 2  qrot/sn=   59167.2866 T*S(rot)=     7.40 kcal/mol T*S(tot)=    20.40 kcal/mol
 sn= 3  qrot/sn=   39444.8577 T*S(rot)=     7.16 kcal/mol T*S(tot)=    20.15 kcal/mol
 sn= 4  qrot/sn=   29583.6433 T*S(rot)=     6.99 kcal/mol T*S(tot)=    19.98 kcal/mol
 sn= 5  qrot/sn=   23666.9146 T*S(rot)=     6.86 kcal/mol T*S(tot)=    19.85 kcal/mol
 sn= 6  qrot/sn=   19722.4289 T*S(rot)=     6.75 kcal/mol T*S(tot)=    19.74 kcal/mol
 sn= 7  qrot/sn=   16904.9390 T*S(rot)=     6.66 kcal/mol T*S(tot)=    19.65 kcal/mol
 sn= 8  qrot/sn=   14791.8216 T*S(rot)=     6.58 kcal/mol T*S(tot)=    19.57 kcal/mol
 sn= 9  qrot/sn=   13148.2859 T*S(rot)=     6.51 kcal/mol T*S(tot)=    19.50 kcal/mol
 sn=10  qrot/sn=   11833.4573 T*S(rot)=     6.45 kcal/mol T*S(tot)=    19.44 kcal/mol
 sn=11  qrot/sn=   10757.6885 T*S(rot)=     6.39 kcal/mol T*S(tot)=    19.39 kcal/mol
 sn=12  qrot/sn=    9861.2144 T*S(rot)=     6.34 kcal/mol T*S(tot)=    19.33 kcal/mol


-------------------
GIBBS FREE ENTHALPY
-------------------

The Gibbs free enthalpy is G = H - T*S

Total enthalpy                    ...  -1057.63524014 Eh 
Total entropy correction          ...     -0.03211896 Eh    -20.15 kcal/mol
-----------------------------------------------------------------------
Final Gibbs free enthalpy         ...  -1057.66735910 Eh

For completeness - the Gibbs free enthalpy minus the electronic energy
G-E(el)                           ...     -0.00468336 Eh     -2.94 kcal/mol


Timings for individual modules:

Sum of individual times         ...       77.195 sec (=   1.287 min)
GTO integral calculation        ...        5.201 sec (=   0.087 min)   6.7 %
SCF iterations                  ...       34.481 sec (=   0.575 min)  44.7 %
SCF Gradient evaluation         ...       13.710 sec (=   0.229 min)  17.8 %
Geometry relaxation             ...        0.169 sec (=   0.003 min)   0.2 %
Analytical frequency calculation...       23.634 sec (=   0.394 min)  30.6 %
                             ****ORCA TERMINATED NORMALLY****
TOTAL RUN TIME: 0 days 0 hours 1 minutes 18 seconds 882 msec
